<?xml version="1.0" encoding="UTF-8"?>

<!-- generated on Fri 05 Apr 2019 01:31:53 PM PDT by SUMO gui Version 0.25.0
<?xml version="1.0" encoding="UTF-8"?>

<configuration xmlns:xsi="http://www.w3.org/2001/XMLSchema-instance" xsi:noNamespaceSchemaLocation="http://sumo.dlr.de/xsd/sumo-gui.exeConfiguration.xsd">

    <input>
        <net-file value="va_data/cross.net.xml"/>
        <route-files value="va_data/cross.rou.xml"/>
        <additional-files value="va_data/cross.add.xml"/>
    </input>

    <output>
        <summary-output value="tripinfo_va.xml"/>
        <save-state.prefix value="va_data/state"/>
    </output>

    <time>
        <begin value="0"/>
        <end value="50"/>
    </time>

    <emissions>
        <phemlight-path value="va_data/./PHEMlight/"/>
    </emissions>

    <traci_server>
        <remote-port value="8873"/>
    </traci_server>

</configuration>
-->

<detector xmlns:xsi="http://www.w3.org/2001/XMLSchema-instance" xsi:noNamespaceSchemaLocation="http://sumo.dlr.de/xsd/det_e1_file.xsd">
   <interval begin="0.00" end="300.00" id="TLS0_my_program_InductLoopOn_4i_0" nVehContrib="0" flow="0.00" occupancy="0.00" speed="-1.00" length="-1.00" nVehEntered="0"/>
   <interval begin="0.00" end="300.00" id="TLS0_my_program_InductLoopOn_4i_1" nVehContrib="6" flow="72.00" occupancy="1.75" speed="13.10" length="5.00" nVehEntered="6"/>
   <interval begin="0.00" end="300.00" id="TLS0_my_program_InductLoopOn_4i_2" nVehContrib="9" flow="108.00" occupancy="6.64" speed="11.50" length="5.00" nVehEntered="9"/>
   <interval begin="0.00" end="300.00" id="TLS0_my_program_InductLoopOn_2i_0" nVehContrib="0" flow="0.00" occupancy="0.00" speed="-1.00" length="-1.00" nVehEntered="0"/>
   <interval begin="0.00" end="300.00" id="TLS0_my_program_InductLoopOn_2i_1" nVehContrib="58" flow="696.00" occupancy="31.70" speed="10.64" length="5.00" nVehEntered="58"/>
   <interval begin="0.00" end="300.00" id="TLS0_my_program_InductLoopOn_2i_2" nVehContrib="8" flow="96.00" occupancy="0.80" speed="17.09" length="5.00" nVehEntered="8"/>
   <interval begin="0.00" end="300.00" id="TLS0_my_program_InductLoopOn_3i_0" nVehContrib="0" flow="0.00" occupancy="0.00" speed="-1.00" length="-1.00" nVehEntered="0"/>
   <interval begin="0.00" end="300.00" id="TLS0_my_program_InductLoopOn_3i_1" nVehContrib="7" flow="84.00" occupancy="0.91" speed="13.45" length="5.00" nVehEntered="7"/>
   <interval begin="0.00" end="300.00" id="TLS0_my_program_InductLoopOn_3i_2" nVehContrib="7" flow="84.00" occupancy="2.52" speed="13.61" length="5.00" nVehEntered="7"/>
   <interval begin="0.00" end="300.00" id="TLS0_my_program_InductLoopOn_1i_0" nVehContrib="0" flow="0.00" occupancy="0.00" speed="-1.00" length="-1.00" nVehEntered="0"/>
   <interval begin="0.00" end="300.00" id="TLS0_my_program_InductLoopOn_1i_1" nVehContrib="53" flow="636.00" occupancy="37.24" speed="13.05" length="5.00" nVehEntered="53"/>
   <interval begin="0.00" end="300.00" id="TLS0_my_program_InductLoopOn_1i_2" nVehContrib="6" flow="72.00" occupancy="0.60" speed="16.95" length="5.00" nVehEntered="6"/>
   <interval begin="300.00" end="600.00" id="TLS0_my_program_InductLoopOn_4i_0" nVehContrib="0" flow="0.00" occupancy="0.00" speed="-1.00" length="-1.00" nVehEntered="0"/>
   <interval begin="300.00" end="600.00" id="TLS0_my_program_InductLoopOn_4i_1" nVehContrib="9" flow="108.00" occupancy="2.22" speed="12.82" length="5.00" nVehEntered="9"/>
   <interval begin="300.00" end="600.00" id="TLS0_my_program_InductLoopOn_4i_2" nVehContrib="17" flow="204.00" occupancy="36.93" speed="10.20" length="5.00" nVehEntered="17"/>
   <interval begin="300.00" end="600.00" id="TLS0_my_program_InductLoopOn_2i_0" nVehContrib="0" flow="0.00" occupancy="0.00" speed="-1.00" length="-1.00" nVehEntered="0"/>
   <interval begin="300.00" end="600.00" id="TLS0_my_program_InductLoopOn_2i_1" nVehContrib="68" flow="816.00" occupancy="50.08" speed="9.65" length="5.00" nVehEntered="68"/>
   <interval begin="300.00" end="600.00" id="TLS0_my_program_InductLoopOn_2i_2" nVehContrib="6" flow="72.00" occupancy="0.60" speed="16.95" length="5.00" nVehEntered="6"/>
   <interval begin="300.00" end="600.00" id="TLS0_my_program_InductLoopOn_3i_0" nVehContrib="0" flow="0.00" occupancy="0.00" speed="-1.00" length="-1.00" nVehEntered="0"/>
   <interval begin="300.00" end="600.00" id="TLS0_my_program_InductLoopOn_3i_1" nVehContrib="14" flow="168.00" occupancy="30.24" speed="12.15" length="5.00" nVehEntered="14"/>
   <interval begin="300.00" end="600.00" id="TLS0_my_program_InductLoopOn_3i_2" nVehContrib="13" flow="156.00" occupancy="26.24" speed="9.78" length="5.00" nVehEntered="13"/>
   <interval begin="300.00" end="600.00" id="TLS0_my_program_InductLoopOn_1i_0" nVehContrib="0" flow="0.00" occupancy="0.00" speed="-1.00" length="-1.00" nVehEntered="0"/>
   <interval begin="300.00" end="600.00" id="TLS0_my_program_InductLoopOn_1i_1" nVehContrib="73" flow="876.00" occupancy="57.66" speed="11.05" length="5.00" nVehEntered="73"/>
   <interval begin="300.00" end="600.00" id="TLS0_my_program_InductLoopOn_1i_2" nVehContrib="8" flow="96.00" occupancy="0.92" speed="14.93" length="5.00" nVehEntered="8"/>
   <interval begin="600.00" end="900.00" id="TLS0_my_program_InductLoopOn_4i_0" nVehContrib="0" flow="0.00" occupancy="0.00" speed="-1.00" length="-1.00" nVehEntered="0"/>
   <interval begin="600.00" end="900.00" id="TLS0_my_program_InductLoopOn_4i_1" nVehContrib="10" flow="120.00" occupancy="21.21" speed="7.97" length="5.00" nVehEntered="10"/>
   <interval begin="600.00" end="900.00" id="TLS0_my_program_InductLoopOn_4i_2" nVehContrib="9" flow="108.00" occupancy="41.38" speed="8.60" length="5.00" nVehEntered="9"/>
   <interval begin="600.00" end="900.00" id="TLS0_my_program_InductLoopOn_2i_0" nVehContrib="0" flow="0.00" occupancy="0.00" speed="-1.00" length="-1.00" nVehEntered="0"/>
   <interval begin="600.00" end="900.00" id="TLS0_my_program_InductLoopOn_2i_1" nVehContrib="68" flow="816.00" occupancy="54.60" speed="9.78" length="5.00" nVehEntered="68"/>
   <interval begin="600.00" end="900.00" id="TLS0_my_program_InductLoopOn_2i_2" nVehContrib="8" flow="96.00" occupancy="0.90" speed="15.43" length="5.00" nVehEntered="8"/>
   <interval begin="600.00" end="900.00" id="TLS0_my_program_InductLoopOn_3i_0" nVehContrib="0" flow="0.00" occupancy="0.00" speed="-1.00" length="-1.00" nVehEntered="0"/>
   <interval begin="600.00" end="900.00" id="TLS0_my_program_InductLoopOn_3i_1" nVehContrib="10" flow="120.00" occupancy="1.40" speed="13.05" length="5.00" nVehEntered="10"/>
   <interval begin="600.00" end="900.00" id="TLS0_my_program_InductLoopOn_3i_2" nVehContrib="13" flow="156.00" occupancy="60.47" speed="9.18" length="5.00" nVehEntered="13"/>
   <interval begin="600.00" end="900.00" id="TLS0_my_program_InductLoopOn_1i_0" nVehContrib="0" flow="0.00" occupancy="0.00" speed="-1.00" length="-1.00" nVehEntered="0"/>
   <interval begin="600.00" end="900.00" id="TLS0_my_program_InductLoopOn_1i_1" nVehContrib="60" flow="720.00" occupancy="56.52" speed="11.88" length="5.00" nVehEntered="60"/>
   <interval begin="600.00" end="900.00" id="TLS0_my_program_InductLoopOn_1i_2" nVehContrib="6" flow="72.00" occupancy="0.64" speed="15.85" length="5.00" nVehEntered="6"/>
   <interval begin="900.00" end="1200.00" id="TLS0_my_program_InductLoopOn_4i_0" nVehContrib="0" flow="0.00" occupancy="0.00" speed="-1.00" length="-1.00" nVehEntered="0"/>
   <interval begin="900.00" end="1200.00" id="TLS0_my_program_InductLoopOn_4i_1" nVehContrib="11" flow="132.00" occupancy="4.86" speed="11.53" length="5.00" nVehEntered="11"/>
   <interval begin="900.00" end="1200.00" id="TLS0_my_program_InductLoopOn_4i_2" nVehContrib="9" flow="108.00" occupancy="30.37" speed="9.30" length="5.00" nVehEntered="9"/>
   <interval begin="900.00" end="1200.00" id="TLS0_my_program_InductLoopOn_2i_0" nVehContrib="0" flow="0.00" occupancy="0.00" speed="-1.00" length="-1.00" nVehEntered="0"/>
   <interval begin="900.00" end="1200.00" id="TLS0_my_program_InductLoopOn_2i_1" nVehContrib="67" flow="804.00" occupancy="50.19" speed="9.83" length="5.00" nVehEntered="67"/>
   <interval begin="900.00" end="1200.00" id="TLS0_my_program_InductLoopOn_2i_2" nVehContrib="5" flow="60.00" occupancy="0.59" speed="14.35" length="5.00" nVehEntered="5"/>
   <interval begin="900.00" end="1200.00" id="TLS0_my_program_InductLoopOn_3i_0" nVehContrib="0" flow="0.00" occupancy="0.00" speed="-1.00" length="-1.00" nVehEntered="0"/>
   <interval begin="900.00" end="1200.00" id="TLS0_my_program_InductLoopOn_3i_1" nVehContrib="8" flow="96.00" occupancy="0.87" speed="15.38" length="5.00" nVehEntered="8"/>
   <interval begin="900.00" end="1200.00" id="TLS0_my_program_InductLoopOn_3i_2" nVehContrib="13" flow="156.00" occupancy="21.68" speed="7.85" length="5.00" nVehEntered="13"/>
   <interval begin="900.00" end="1200.00" id="TLS0_my_program_InductLoopOn_1i_0" nVehContrib="0" flow="0.00" occupancy="0.00" speed="-1.00" length="-1.00" nVehEntered="0"/>
   <interval begin="900.00" end="1200.00" id="TLS0_my_program_InductLoopOn_1i_1" nVehContrib="79" flow="948.00" occupancy="50.69" speed="11.06" length="5.00" nVehEntered="79"/>
   <interval begin="900.00" end="1200.00" id="TLS0_my_program_InductLoopOn_1i_2" nVehContrib="6" flow="72.00" occupancy="0.71" speed="15.04" length="5.00" nVehEntered="6"/>
   <interval begin="1200.00" end="1500.00" id="TLS0_my_program_InductLoopOn_4i_0" nVehContrib="0" flow="0.00" occupancy="0.00" speed="-1.00" length="-1.00" nVehEntered="0"/>
   <interval begin="1200.00" end="1500.00" id="TLS0_my_program_InductLoopOn_4i_1" nVehContrib="9" flow="108.00" occupancy="13.68" speed="11.36" length="5.00" nVehEntered="9"/>
   <interval begin="1200.00" end="1500.00" id="TLS0_my_program_InductLoopOn_4i_2" nVehContrib="12" flow="144.00" occupancy="5.60" speed="10.78" length="5.00" nVehEntered="12"/>
   <interval begin="1200.00" end="1500.00" id="TLS0_my_program_InductLoopOn_2i_0" nVehContrib="0" flow="0.00" occupancy="0.00" speed="-1.00" length="-1.00" nVehEntered="0"/>
   <interval begin="1200.00" end="1500.00" id="TLS0_my_program_InductLoopOn_2i_1" nVehContrib="61" flow="732.00" occupancy="45.60" speed="9.87" length="5.00" nVehEntered="61"/>
   <interval begin="1200.00" end="1500.00" id="TLS0_my_program_InductLoopOn_2i_2" nVehContrib="7" flow="84.00" occupancy="0.70" speed="17.01" length="5.00" nVehEntered="7"/>
   <interval begin="1200.00" end="1500.00" id="TLS0_my_program_InductLoopOn_3i_0" nVehContrib="0" flow="0.00" occupancy="0.00" speed="-1.00" length="-1.00" nVehEntered="0"/>
   <interval begin="1200.00" end="1500.00" id="TLS0_my_program_InductLoopOn_3i_1" nVehContrib="8" flow="96.00" occupancy="1.24" speed="12.25" length="5.00" nVehEntered="8"/>
   <interval begin="1200.00" end="1500.00" id="TLS0_my_program_InductLoopOn_3i_2" nVehContrib="15" flow="180.00" occupancy="32.83" speed="8.75" length="5.00" nVehEntered="15"/>
   <interval begin="1200.00" end="1500.00" id="TLS0_my_program_InductLoopOn_1i_0" nVehContrib="0" flow="0.00" occupancy="0.00" speed="-1.00" length="-1.00" nVehEntered="0"/>
   <interval begin="1200.00" end="1500.00" id="TLS0_my_program_InductLoopOn_1i_1" nVehContrib="52" flow="624.00" occupancy="60.89" speed="11.19" length="5.00" nVehEntered="52"/>
   <interval begin="1200.00" end="1500.00" id="TLS0_my_program_InductLoopOn_1i_2" nVehContrib="6" flow="72.00" occupancy="0.61" speed="16.17" length="5.00" nVehEntered="6"/>
   <interval begin="1500.00" end="1800.00" id="TLS0_my_program_InductLoopOn_4i_0" nVehContrib="0" flow="0.00" occupancy="0.00" speed="-1.00" length="-1.00" nVehEntered="0"/>
   <interval begin="1500.00" end="1800.00" id="TLS0_my_program_InductLoopOn_4i_1" nVehContrib="14" flow="168.00" occupancy="11.23" speed="10.55" length="5.00" nVehEntered="14"/>
   <interval begin="1500.00" end="1800.00" id="TLS0_my_program_InductLoopOn_4i_2" nVehContrib="12" flow="144.00" occupancy="25.63" speed="10.58" length="5.00" nVehEntered="12"/>
   <interval begin="1500.00" end="1800.00" id="TLS0_my_program_InductLoopOn_2i_0" nVehContrib="0" flow="0.00" occupancy="0.00" speed="-1.00" length="-1.00" nVehEntered="0"/>
   <interval begin="1500.00" end="1800.00" id="TLS0_my_program_InductLoopOn_2i_1" nVehContrib="71" flow="852.00" occupancy="48.57" speed="9.44" length="5.00" nVehEntered="71"/>
   <interval begin="1500.00" end="1800.00" id="TLS0_my_program_InductLoopOn_2i_2" nVehContrib="10" flow="120.00" occupancy="15.40" speed="12.18" length="5.00" nVehEntered="10"/>
   <interval begin="1500.00" end="1800.00" id="TLS0_my_program_InductLoopOn_3i_0" nVehContrib="0" flow="0.00" occupancy="0.00" speed="-1.00" length="-1.00" nVehEntered="0"/>
   <interval begin="1500.00" end="1800.00" id="TLS0_my_program_InductLoopOn_3i_1" nVehContrib="10" flow="120.00" occupancy="16.45" speed="11.41" length="5.00" nVehEntered="10"/>
   <interval begin="1500.00" end="1800.00" id="TLS0_my_program_InductLoopOn_3i_2" nVehContrib="9" flow="108.00" occupancy="29.23" speed="9.82" length="5.00" nVehEntered="9"/>
   <interval begin="1500.00" end="1800.00" id="TLS0_my_program_InductLoopOn_1i_0" nVehContrib="0" flow="0.00" occupancy="0.00" speed="-1.00" length="-1.00" nVehEntered="0"/>
   <interval begin="1500.00" end="1800.00" id="TLS0_my_program_InductLoopOn_1i_1" nVehContrib="87" flow="1044.00" occupancy="47.25" speed="11.27" length="5.00" nVehEntered="87"/>
   <interval begin="1500.00" end="1800.00" id="TLS0_my_program_InductLoopOn_1i_2" nVehContrib="4" flow="48.00" occupancy="0.44" speed="15.94" length="5.00" nVehEntered="4"/>
   <interval begin="1800.00" end="2100.00" id="TLS0_my_program_InductLoopOn_4i_0" nVehContrib="0" flow="0.00" occupancy="0.00" speed="-1.00" length="-1.00" nVehEntered="0"/>
   <interval begin="1800.00" end="2100.00" id="TLS0_my_program_InductLoopOn_4i_1" nVehContrib="10" flow="120.00" occupancy="37.92" speed="9.92" length="5.00" nVehEntered="10"/>
   <interval begin="1800.00" end="2100.00" id="TLS0_my_program_InductLoopOn_4i_2" nVehContrib="8" flow="96.00" occupancy="3.83" speed="7.96" length="5.00" nVehEntered="8"/>
   <interval begin="1800.00" end="2100.00" id="TLS0_my_program_InductLoopOn_2i_0" nVehContrib="0" flow="0.00" occupancy="0.00" speed="-1.00" length="-1.00" nVehEntered="0"/>
   <interval begin="1800.00" end="2100.00" id="TLS0_my_program_InductLoopOn_2i_1" nVehContrib="72" flow="864.00" occupancy="43.69" speed="10.18" length="5.00" nVehEntered="72"/>
   <interval begin="1800.00" end="2100.00" id="TLS0_my_program_InductLoopOn_2i_2" nVehContrib="7" flow="84.00" occupancy="0.88" speed="14.27" length="5.00" nVehEntered="7"/>
   <interval begin="1800.00" end="2100.00" id="TLS0_my_program_InductLoopOn_3i_0" nVehContrib="0" flow="0.00" occupancy="0.00" speed="-1.00" length="-1.00" nVehEntered="0"/>
   <interval begin="1800.00" end="2100.00" id="TLS0_my_program_InductLoopOn_3i_1" nVehContrib="13" flow="156.00" occupancy="34.89" speed="7.72" length="5.00" nVehEntered="13"/>
   <interval begin="1800.00" end="2100.00" id="TLS0_my_program_InductLoopOn_3i_2" nVehContrib="10" flow="120.00" occupancy="1.38" speed="12.51" length="5.00" nVehEntered="10"/>
   <interval begin="1800.00" end="2100.00" id="TLS0_my_program_InductLoopOn_1i_0" nVehContrib="0" flow="0.00" occupancy="0.00" speed="-1.00" length="-1.00" nVehEntered="0"/>
   <interval begin="1800.00" end="2100.00" id="TLS0_my_program_InductLoopOn_1i_1" nVehContrib="62" flow="744.00" occupancy="63.15" speed="10.76" length="5.00" nVehEntered="62"/>
   <interval begin="1800.00" end="2100.00" id="TLS0_my_program_InductLoopOn_1i_2" nVehContrib="8" flow="96.00" occupancy="0.94" speed="14.52" length="5.00" nVehEntered="8"/>
   <interval begin="2100.00" end="2400.00" id="TLS0_my_program_InductLoopOn_4i_0" nVehContrib="0" flow="0.00" occupancy="0.00" speed="-1.00" length="-1.00" nVehEntered="0"/>
   <interval begin="2100.00" end="2400.00" id="TLS0_my_program_InductLoopOn_4i_1" nVehContrib="9" flow="108.00" occupancy="21.58" speed="9.32" length="5.00" nVehEntered="9"/>
   <interval begin="2100.00" end="2400.00" id="TLS0_my_program_InductLoopOn_4i_2" nVehContrib="9" flow="108.00" occupancy="36.77" speed="9.48" length="5.00" nVehEntered="9"/>
   <interval begin="2100.00" end="2400.00" id="TLS0_my_program_InductLoopOn_2i_0" nVehContrib="0" flow="0.00" occupancy="0.00" speed="-1.00" length="-1.00" nVehEntered="0"/>
   <interval begin="2100.00" end="2400.00" id="TLS0_my_program_InductLoopOn_2i_1" nVehContrib="63" flow="756.00" occupancy="45.55" speed="10.44" length="5.00" nVehEntered="63"/>
   <interval begin="2100.00" end="2400.00" id="TLS0_my_program_InductLoopOn_2i_2" nVehContrib="8" flow="96.00" occupancy="1.02" speed="13.87" length="5.00" nVehEntered="8"/>
   <interval begin="2100.00" end="2400.00" id="TLS0_my_program_InductLoopOn_3i_0" nVehContrib="0" flow="0.00" occupancy="0.00" speed="-1.00" length="-1.00" nVehEntered="0"/>
   <interval begin="2100.00" end="2400.00" id="TLS0_my_program_InductLoopOn_3i_1" nVehContrib="8" flow="96.00" occupancy="0.87" speed="15.44" length="5.00" nVehEntered="8"/>
   <interval begin="2100.00" end="2400.00" id="TLS0_my_program_InductLoopOn_3i_2" nVehContrib="11" flow="132.00" occupancy="26.00" speed="9.54" length="5.00" nVehEntered="11"/>
   <interval begin="2100.00" end="2400.00" id="TLS0_my_program_InductLoopOn_1i_0" nVehContrib="0" flow="0.00" occupancy="0.00" speed="-1.00" length="-1.00" nVehEntered="0"/>
   <interval begin="2100.00" end="2400.00" id="TLS0_my_program_InductLoopOn_1i_1" nVehContrib="58" flow="696.00" occupancy="52.83" speed="12.47" length="5.00" nVehEntered="58"/>
   <interval begin="2100.00" end="2400.00" id="TLS0_my_program_InductLoopOn_1i_2" nVehContrib="9" flow="108.00" occupancy="0.96" speed="16.10" length="5.00" nVehEntered="9"/>
   <interval begin="2400.00" end="2700.00" id="TLS0_my_program_InductLoopOn_4i_0" nVehContrib="0" flow="0.00" occupancy="0.00" speed="-1.00" length="-1.00" nVehEntered="0"/>
   <interval begin="2400.00" end="2700.00" id="TLS0_my_program_InductLoopOn_4i_1" nVehContrib="9" flow="108.00" occupancy="21.27" speed="11.87" length="5.00" nVehEntered="9"/>
   <interval begin="2400.00" end="2700.00" id="TLS0_my_program_InductLoopOn_4i_2" nVehContrib="8" flow="96.00" occupancy="1.51" speed="10.87" length="5.00" nVehEntered="8"/>
   <interval begin="2400.00" end="2700.00" id="TLS0_my_program_InductLoopOn_2i_0" nVehContrib="0" flow="0.00" occupancy="0.00" speed="-1.00" length="-1.00" nVehEntered="0"/>
   <interval begin="2400.00" end="2700.00" id="TLS0_my_program_InductLoopOn_2i_1" nVehContrib="60" flow="720.00" occupancy="48.05" speed="9.49" length="5.00" nVehEntered="60"/>
   <interval begin="2400.00" end="2700.00" id="TLS0_my_program_InductLoopOn_2i_2" nVehContrib="13" flow="156.00" occupancy="24.74" speed="10.93" length="5.00" nVehEntered="13"/>
   <interval begin="2400.00" end="2700.00" id="TLS0_my_program_InductLoopOn_3i_0" nVehContrib="0" flow="0.00" occupancy="0.00" speed="-1.00" length="-1.00" nVehEntered="0"/>
   <interval begin="2400.00" end="2700.00" id="TLS0_my_program_InductLoopOn_3i_1" nVehContrib="8" flow="96.00" occupancy="1.05" speed="13.33" length="5.00" nVehEntered="8"/>
   <interval begin="2400.00" end="2700.00" id="TLS0_my_program_InductLoopOn_3i_2" nVehContrib="15" flow="180.00" occupancy="19.85" speed="10.20" length="5.00" nVehEntered="15"/>
   <interval begin="2400.00" end="2700.00" id="TLS0_my_program_InductLoopOn_1i_0" nVehContrib="0" flow="0.00" occupancy="0.00" speed="-1.00" length="-1.00" nVehEntered="0"/>
   <interval begin="2400.00" end="2700.00" id="TLS0_my_program_InductLoopOn_1i_1" nVehContrib="83" flow="996.00" occupancy="46.75" speed="11.26" length="5.00" nVehEntered="83"/>
   <interval begin="2400.00" end="2700.00" id="TLS0_my_program_InductLoopOn_1i_2" nVehContrib="6" flow="72.00" occupancy="0.62" speed="16.61" length="5.00" nVehEntered="6"/>
   <interval begin="2700.00" end="3000.00" id="TLS0_my_program_InductLoopOn_4i_0" nVehContrib="0" flow="0.00" occupancy="0.00" speed="-1.00" length="-1.00" nVehEntered="0"/>
   <interval begin="2700.00" end="3000.00" id="TLS0_my_program_InductLoopOn_4i_1" nVehContrib="19" flow="228.00" occupancy="37.22" speed="7.91" length="5.00" nVehEntered="19"/>
   <interval begin="2700.00" end="3000.00" id="TLS0_my_program_InductLoopOn_4i_2" nVehContrib="9" flow="108.00" occupancy="28.33" speed="10.78" length="5.00" nVehEntered="9"/>
   <interval begin="2700.00" end="3000.00" id="TLS0_my_program_InductLoopOn_2i_0" nVehContrib="0" flow="0.00" occupancy="0.00" speed="-1.00" length="-1.00" nVehEntered="0"/>
   <interval begin="2700.00" end="3000.00" id="TLS0_my_program_InductLoopOn_2i_1" nVehContrib="60" flow="720.00" occupancy="53.63" speed="9.62" length="5.00" nVehEntered="60"/>
   <interval begin="2700.00" end="3000.00" id="TLS0_my_program_InductLoopOn_2i_2" nVehContrib="8" flow="96.00" occupancy="1.14" speed="13.19" length="5.00" nVehEntered="8"/>
   <interval begin="2700.00" end="3000.00" id="TLS0_my_program_InductLoopOn_3i_0" nVehContrib="0" flow="0.00" occupancy="0.00" speed="-1.00" length="-1.00" nVehEntered="0"/>
   <interval begin="2700.00" end="3000.00" id="TLS0_my_program_InductLoopOn_3i_1" nVehContrib="5" flow="60.00" occupancy="0.56" speed="15.11" length="5.00" nVehEntered="5"/>
   <interval begin="2700.00" end="3000.00" id="TLS0_my_program_InductLoopOn_3i_2" nVehContrib="12" flow="144.00" occupancy="40.58" speed="7.11" length="5.00" nVehEntered="12"/>
   <interval begin="2700.00" end="3000.00" id="TLS0_my_program_InductLoopOn_1i_0" nVehContrib="0" flow="0.00" occupancy="0.00" speed="-1.00" length="-1.00" nVehEntered="0"/>
   <interval begin="2700.00" end="3000.00" id="TLS0_my_program_InductLoopOn_1i_1" nVehContrib="47" flow="564.00" occupancy="67.60" speed="11.50" length="5.00" nVehEntered="47"/>
   <interval begin="2700.00" end="3000.00" id="TLS0_my_program_InductLoopOn_1i_2" nVehContrib="6" flow="72.00" occupancy="0.64" speed="15.95" length="5.00" nVehEntered="6"/>
   <interval begin="3000.00" end="3300.00" id="TLS0_my_program_InductLoopOn_4i_0" nVehContrib="0" flow="0.00" occupancy="0.00" speed="-1.00" length="-1.00" nVehEntered="0"/>
   <interval begin="3000.00" end="3300.00" id="TLS0_my_program_InductLoopOn_4i_1" nVehContrib="7" flow="84.00" occupancy="0.91" speed="13.34" length="5.00" nVehEntered="7"/>
   <interval begin="3000.00" end="3300.00" id="TLS0_my_program_InductLoopOn_4i_2" nVehContrib="9" flow="108.00" occupancy="4.98" speed="11.03" length="5.00" nVehEntered="9"/>
   <interval begin="3000.00" end="3300.00" id="TLS0_my_program_InductLoopOn_2i_0" nVehContrib="0" flow="0.00" occupancy="0.00" speed="-1.00" length="-1.00" nVehEntered="0"/>
   <interval begin="3000.00" end="3300.00" id="TLS0_my_program_InductLoopOn_2i_1" nVehContrib="72" flow="864.00" occupancy="54.42" speed="9.13" length="5.00" nVehEntered="72"/>
   <interval begin="3000.00" end="3300.00" id="TLS0_my_program_InductLoopOn_2i_2" nVehContrib="8" flow="96.00" occupancy="0.84" speed="16.22" length="5.00" nVehEntered="8"/>
   <interval begin="3000.00" end="3300.00" id="TLS0_my_program_InductLoopOn_3i_0" nVehContrib="0" flow="0.00" occupancy="0.00" speed="-1.00" length="-1.00" nVehEntered="0"/>
   <interval begin="3000.00" end="3300.00" id="TLS0_my_program_InductLoopOn_3i_1" nVehContrib="9" flow="108.00" occupancy="30.62" speed="11.52" length="5.00" nVehEntered="9"/>
   <interval begin="3000.00" end="3300.00" id="TLS0_my_program_InductLoopOn_3i_2" nVehContrib="12" flow="144.00" occupancy="36.43" speed="10.13" length="5.00" nVehEntered="12"/>
   <interval begin="3000.00" end="3300.00" id="TLS0_my_program_InductLoopOn_1i_0" nVehContrib="0" flow="0.00" occupancy="0.00" speed="-1.00" length="-1.00" nVehEntered="0"/>
   <interval begin="3000.00" end="3300.00" id="TLS0_my_program_InductLoopOn_1i_1" nVehContrib="89" flow="1068.00" occupancy="47.64" speed="11.15" length="5.00" nVehEntered="89"/>
   <interval begin="3000.00" end="3300.00" id="TLS0_my_program_InductLoopOn_1i_2" nVehContrib="8" flow="96.00" occupancy="0.99" speed="14.33" length="5.00" nVehEntered="8"/>
   <interval begin="3300.00" end="3600.00" id="TLS0_my_program_InductLoopOn_4i_0" nVehContrib="0" flow="0.00" occupancy="0.00" speed="-1.00" length="-1.00" nVehEntered="0"/>
   <interval begin="3300.00" end="3600.00" id="TLS0_my_program_InductLoopOn_4i_1" nVehContrib="0" flow="0.00" occupancy="0.00" speed="-1.00" length="-1.00" nVehEntered="0"/>
   <interval begin="3300.00" end="3600.00" id="TLS0_my_program_InductLoopOn_4i_2" nVehContrib="0" flow="0.00" occupancy="0.00" speed="-1.00" length="-1.00" nVehEntered="0"/>
   <interval begin="3300.00" end="3600.00" id="TLS0_my_program_InductLoopOn_2i_0" nVehContrib="0" flow="0.00" occupancy="0.00" speed="-1.00" length="-1.00" nVehEntered="0"/>
   <interval begin="3300.00" end="3600.00" id="TLS0_my_program_InductLoopOn_2i_1" nVehContrib="76" flow="912.00" occupancy="34.93" speed="10.84" length="5.00" nVehEntered="76"/>
   <interval begin="3300.00" end="3600.00" id="TLS0_my_program_InductLoopOn_2i_2" nVehContrib="5" flow="60.00" occupancy="0.48" speed="17.39" length="5.00" nVehEntered="5"/>
   <interval begin="3300.00" end="3600.00" id="TLS0_my_program_InductLoopOn_3i_0" nVehContrib="0" flow="0.00" occupancy="0.00" speed="-1.00" length="-1.00" nVehEntered="0"/>
   <interval begin="3300.00" end="3600.00" id="TLS0_my_program_InductLoopOn_3i_1" nVehContrib="0" flow="0.00" occupancy="0.00" speed="-1.00" length="-1.00" nVehEntered="0"/>
   <interval begin="3300.00" end="3600.00" id="TLS0_my_program_InductLoopOn_3i_2" nVehContrib="0" flow="0.00" occupancy="0.00" speed="-1.00" length="-1.00" nVehEntered="0"/>
   <interval begin="3300.00" end="3600.00" id="TLS0_my_program_InductLoopOn_1i_0" nVehContrib="0" flow="0.00" occupancy="0.00" speed="-1.00" length="-1.00" nVehEntered="0"/>
   <interval begin="3300.00" end="3600.00" id="TLS0_my_program_InductLoopOn_1i_1" nVehContrib="70" flow="840.00" occupancy="48.34" speed="11.65" length="5.00" nVehEntered="70"/>
   <interval begin="3300.00" end="3600.00" id="TLS0_my_program_InductLoopOn_1i_2" nVehContrib="5" flow="60.00" occupancy="0.49" speed="17.23" length="5.00" nVehEntered="5"/>
   <interval begin="3600.00" end="3900.00" id="TLS0_my_program_InductLoopOn_4i_0" nVehContrib="0" flow="0.00" occupancy="0.00" speed="-1.00" length="-1.00" nVehEntered="0"/>
   <interval begin="3600.00" end="3900.00" id="TLS0_my_program_InductLoopOn_4i_1" nVehContrib="0" flow="0.00" occupancy="0.00" speed="-1.00" length="-1.00" nVehEntered="0"/>
   <interval begin="3600.00" end="3900.00" id="TLS0_my_program_InductLoopOn_4i_2" nVehContrib="0" flow="0.00" occupancy="0.00" speed="-1.00" length="-1.00" nVehEntered="0"/>
   <interval begin="3600.00" end="3900.00" id="TLS0_my_program_InductLoopOn_2i_0" nVehContrib="0" flow="0.00" occupancy="0.00" speed="-1.00" length="-1.00" nVehEntered="0"/>
   <interval begin="3600.00" end="3900.00" id="TLS0_my_program_InductLoopOn_2i_1" nVehContrib="72" flow="864.00" occupancy="34.10" speed="10.87" length="5.00" nVehEntered="72"/>
   <interval begin="3600.00" end="3900.00" id="TLS0_my_program_InductLoopOn_2i_2" nVehContrib="5" flow="60.00" occupancy="0.59" speed="14.38" length="5.00" nVehEntered="5"/>
   <interval begin="3600.00" end="3900.00" id="TLS0_my_program_InductLoopOn_3i_0" nVehContrib="0" flow="0.00" occupancy="0.00" speed="-1.00" length="-1.00" nVehEntered="0"/>
   <interval begin="3600.00" end="3900.00" id="TLS0_my_program_InductLoopOn_3i_1" nVehContrib="0" flow="0.00" occupancy="0.00" speed="-1.00" length="-1.00" nVehEntered="0"/>
   <interval begin="3600.00" end="3900.00" id="TLS0_my_program_InductLoopOn_3i_2" nVehContrib="0" flow="0.00" occupancy="0.00" speed="-1.00" length="-1.00" nVehEntered="0"/>
   <interval begin="3600.00" end="3900.00" id="TLS0_my_program_InductLoopOn_1i_0" nVehContrib="0" flow="0.00" occupancy="0.00" speed="-1.00" length="-1.00" nVehEntered="0"/>
   <interval begin="3600.00" end="3900.00" id="TLS0_my_program_InductLoopOn_1i_1" nVehContrib="68" flow="816.00" occupancy="46.72" speed="11.52" length="5.00" nVehEntered="68"/>
   <interval begin="3600.00" end="3900.00" id="TLS0_my_program_InductLoopOn_1i_2" nVehContrib="7" flow="84.00" occupancy="0.73" speed="16.24" length="5.00" nVehEntered="7"/>
   <interval begin="3900.00" end="4200.00" id="TLS0_my_program_InductLoopOn_4i_0" nVehContrib="0" flow="0.00" occupancy="0.00" speed="-1.00" length="-1.00" nVehEntered="0"/>
   <interval begin="3900.00" end="4200.00" id="TLS0_my_program_InductLoopOn_4i_1" nVehContrib="0" flow="0.00" occupancy="0.00" speed="-1.00" length="-1.00" nVehEntered="0"/>
   <interval begin="3900.00" end="4200.00" id="TLS0_my_program_InductLoopOn_4i_2" nVehContrib="0" flow="0.00" occupancy="0.00" speed="-1.00" length="-1.00" nVehEntered="0"/>
   <interval begin="3900.00" end="4200.00" id="TLS0_my_program_InductLoopOn_2i_0" nVehContrib="0" flow="0.00" occupancy="0.00" speed="-1.00" length="-1.00" nVehEntered="0"/>
   <interval begin="3900.00" end="4200.00" id="TLS0_my_program_InductLoopOn_2i_1" nVehContrib="67" flow="804.00" occupancy="37.89" speed="9.98" length="5.00" nVehEntered="67"/>
   <interval begin="3900.00" end="4200.00" id="TLS0_my_program_InductLoopOn_2i_2" nVehContrib="8" flow="96.00" occupancy="0.91" speed="15.57" length="5.00" nVehEntered="8"/>
   <interval begin="3900.00" end="4200.00" id="TLS0_my_program_InductLoopOn_3i_0" nVehContrib="0" flow="0.00" occupancy="0.00" speed="-1.00" length="-1.00" nVehEntered="0"/>
   <interval begin="3900.00" end="4200.00" id="TLS0_my_program_InductLoopOn_3i_1" nVehContrib="0" flow="0.00" occupancy="0.00" speed="-1.00" length="-1.00" nVehEntered="0"/>
   <interval begin="3900.00" end="4200.00" id="TLS0_my_program_InductLoopOn_3i_2" nVehContrib="0" flow="0.00" occupancy="0.00" speed="-1.00" length="-1.00" nVehEntered="0"/>
   <interval begin="3900.00" end="4200.00" id="TLS0_my_program_InductLoopOn_1i_0" nVehContrib="0" flow="0.00" occupancy="0.00" speed="-1.00" length="-1.00" nVehEntered="0"/>