<?xml version="1.0" encoding="UTF-8"?>

<!-- generated on Tue 09 Apr 2019 12:26:48 PM PDT by SUMO gui Version 0.25.0
<?xml version="1.0" encoding="UTF-8"?>

<configuration xmlns:xsi="http://www.w3.org/2001/XMLSchema-instance" xsi:noNamespaceSchemaLocation="http://sumo.dlr.de/xsd/sumo-gui.exeConfiguration.xsd">

    <input>
        <net-file value="va_data/cross.net.xml"/>
        <route-files value="va_data/cross.rou.xml"/>
        <additional-files value="va_data/cross.add.xml"/>
    </input>

    <output>
        <summary-output value="OUTPUT/tripinfo_va.xml"/>
        <save-state.prefix value="va_data/state"/>
    </output>

    <time>
        <begin value="0"/>
        <end value="50"/>
    </time>

    <emissions>
        <phemlight-path value="va_data/./PHEMlight/"/>
    </emissions>

    <traci_server>
        <remote-port value="8873"/>
    </traci_server>

</configuration>
-->

<detector xmlns:xsi="http://www.w3.org/2001/XMLSchema-instance" xsi:noNamespaceSchemaLocation="http://sumo.dlr.de/xsd/det_e1_file.xsd">
   <interval begin="0.00" end="300.00" id="TLS0_my_program_InductLoopOn_4i_0" nVehContrib="0" flow="0.00" occupancy="0.00" speed="-1.00" length="-1.00" nVehEntered="0"/>
   <interval begin="0.00" end="300.00" id="TLS0_my_program_InductLoopOn_4i_1" nVehContrib="24" flow="288.00" occupancy="25.50" speed="11.39" length="5.00" nVehEntered="24"/>
   <interval begin="0.00" end="300.00" id="TLS0_my_program_InductLoopOn_4i_2" nVehContrib="4" flow="48.00" occupancy="0.41" speed="16.22" length="5.00" nVehEntered="4"/>
   <interval begin="0.00" end="300.00" id="TLS0_my_program_InductLoopOn_2i_0" nVehContrib="0" flow="0.00" occupancy="0.00" speed="-1.00" length="-1.00" nVehEntered="0"/>
   <interval begin="0.00" end="300.00" id="TLS0_my_program_InductLoopOn_2i_1" nVehContrib="56" flow="672.00" occupancy="32.58" speed="12.14" length="5.00" nVehEntered="56"/>
   <interval begin="0.00" end="300.00" id="TLS0_my_program_InductLoopOn_2i_2" nVehContrib="9" flow="108.00" occupancy="1.08" speed="14.43" length="5.00" nVehEntered="9"/>
   <interval begin="0.00" end="300.00" id="TLS0_my_program_InductLoopOn_3i_0" nVehContrib="0" flow="0.00" occupancy="0.00" speed="-1.00" length="-1.00" nVehEntered="0"/>
   <interval begin="0.00" end="300.00" id="TLS0_my_program_InductLoopOn_3i_1" nVehContrib="19" flow="228.00" occupancy="24.63" speed="12.04" length="5.00" nVehEntered="19"/>
   <interval begin="0.00" end="300.00" id="TLS0_my_program_InductLoopOn_3i_2" nVehContrib="6" flow="72.00" occupancy="0.66" speed="15.40" length="5.00" nVehEntered="6"/>
   <interval begin="0.00" end="300.00" id="TLS0_my_program_InductLoopOn_1i_0" nVehContrib="0" flow="0.00" occupancy="0.00" speed="-1.00" length="-1.00" nVehEntered="0"/>
   <interval begin="0.00" end="300.00" id="TLS0_my_program_InductLoopOn_1i_1" nVehContrib="57" flow="684.00" occupancy="42.89" speed="10.67" length="5.00" nVehEntered="57"/>
   <interval begin="0.00" end="300.00" id="TLS0_my_program_InductLoopOn_1i_2" nVehContrib="6" flow="72.00" occupancy="0.68" speed="14.86" length="5.00" nVehEntered="6"/>
   <interval begin="300.00" end="600.00" id="TLS0_my_program_InductLoopOn_4i_0" nVehContrib="0" flow="0.00" occupancy="0.00" speed="-1.00" length="-1.00" nVehEntered="0"/>
   <interval begin="300.00" end="600.00" id="TLS0_my_program_InductLoopOn_4i_1" nVehContrib="28" flow="336.00" occupancy="64.03" speed="9.32" length="5.00" nVehEntered="28"/>
   <interval begin="300.00" end="600.00" id="TLS0_my_program_InductLoopOn_4i_2" nVehContrib="8" flow="96.00" occupancy="10.37" speed="12.79" length="5.00" nVehEntered="8"/>
   <interval begin="300.00" end="600.00" id="TLS0_my_program_InductLoopOn_2i_0" nVehContrib="0" flow="0.00" occupancy="0.00" speed="-1.00" length="-1.00" nVehEntered="0"/>
   <interval begin="300.00" end="600.00" id="TLS0_my_program_InductLoopOn_2i_1" nVehContrib="71" flow="852.00" occupancy="56.16" speed="9.55" length="5.00" nVehEntered="71"/>
   <interval begin="300.00" end="600.00" id="TLS0_my_program_InductLoopOn_2i_2" nVehContrib="4" flow="48.00" occupancy="0.40" speed="16.89" length="5.00" nVehEntered="4"/>
   <interval begin="300.00" end="600.00" id="TLS0_my_program_InductLoopOn_3i_0" nVehContrib="0" flow="0.00" occupancy="0.00" speed="-1.00" length="-1.00" nVehEntered="0"/>
   <interval begin="300.00" end="600.00" id="TLS0_my_program_InductLoopOn_3i_1" nVehContrib="28" flow="336.00" occupancy="54.78" speed="8.50" length="5.00" nVehEntered="28"/>
   <interval begin="300.00" end="600.00" id="TLS0_my_program_InductLoopOn_3i_2" nVehContrib="8" flow="96.00" occupancy="2.49" speed="11.55" length="5.00" nVehEntered="8"/>
   <interval begin="300.00" end="600.00" id="TLS0_my_program_InductLoopOn_1i_0" nVehContrib="0" flow="0.00" occupancy="0.00" speed="-1.00" length="-1.00" nVehEntered="0"/>
   <interval begin="300.00" end="600.00" id="TLS0_my_program_InductLoopOn_1i_1" nVehContrib="59" flow="708.00" occupancy="60.18" speed="11.60" length="5.00" nVehEntered="59"/>
   <interval begin="300.00" end="600.00" id="TLS0_my_program_InductLoopOn_1i_2" nVehContrib="3" flow="36.00" occupancy="0.29" speed="17.59" length="5.00" nVehEntered="3"/>
   <interval begin="600.00" end="900.00" id="TLS0_my_program_InductLoopOn_4i_0" nVehContrib="0" flow="0.00" occupancy="0.00" speed="-1.00" length="-1.00" nVehEntered="0"/>
   <interval begin="600.00" end="900.00" id="TLS0_my_program_InductLoopOn_4i_1" nVehContrib="35" flow="420.00" occupancy="35.16" speed="12.81" length="5.00" nVehEntered="35"/>
   <interval begin="600.00" end="900.00" id="TLS0_my_program_InductLoopOn_4i_2" nVehContrib="14" flow="168.00" occupancy="33.46" speed="6.97" length="5.00" nVehEntered="14"/>
   <interval begin="600.00" end="900.00" id="TLS0_my_program_InductLoopOn_2i_0" nVehContrib="0" flow="0.00" occupancy="0.00" speed="-1.00" length="-1.00" nVehEntered="0"/>
   <interval begin="600.00" end="900.00" id="TLS0_my_program_InductLoopOn_2i_1" nVehContrib="50" flow="600.00" occupancy="72.49" speed="9.35" length="5.00" nVehEntered="50"/>
   <interval begin="600.00" end="900.00" id="TLS0_my_program_InductLoopOn_2i_2" nVehContrib="10" flow="120.00" occupancy="16.17" speed="10.56" length="5.00" nVehEntered="10"/>
   <interval begin="600.00" end="900.00" id="TLS0_my_program_InductLoopOn_3i_0" nVehContrib="0" flow="0.00" occupancy="0.00" speed="-1.00" length="-1.00" nVehEntered="0"/>
   <interval begin="600.00" end="900.00" id="TLS0_my_program_InductLoopOn_3i_1" nVehContrib="36" flow="432.00" occupancy="51.28" speed="10.29" length="5.00" nVehEntered="36"/>
   <interval begin="600.00" end="900.00" id="TLS0_my_program_InductLoopOn_3i_2" nVehContrib="10" flow="120.00" occupancy="29.46" speed="9.39" length="5.00" nVehEntered="10"/>
   <interval begin="600.00" end="900.00" id="TLS0_my_program_InductLoopOn_1i_0" nVehContrib="0" flow="0.00" occupancy="0.00" speed="-1.00" length="-1.00" nVehEntered="0"/>
   <interval begin="600.00" end="900.00" id="TLS0_my_program_InductLoopOn_1i_1" nVehContrib="46" flow="552.00" occupancy="78.05" speed="10.98" length="5.00" nVehEntered="46"/>
   <interval begin="600.00" end="900.00" id="TLS0_my_program_InductLoopOn_1i_2" nVehContrib="8" flow="96.00" occupancy="0.89" speed="15.35" length="5.00" nVehEntered="8"/>
   <interval begin="900.00" end="1200.00" id="TLS0_my_program_InductLoopOn_4i_0" nVehContrib="0" flow="0.00" occupancy="0.00" speed="-1.00" length="-1.00" nVehEntered="0"/>
   <interval begin="900.00" end="1200.00" id="TLS0_my_program_InductLoopOn_4i_1" nVehContrib="25" flow="300.00" occupancy="65.66" speed="9.38" length="5.00" nVehEntered="25"/>
   <interval begin="900.00" end="1200.00" id="TLS0_my_program_InductLoopOn_4i_2" nVehContrib="8" flow="96.00" occupancy="4.37" speed="12.79" length="5.00" nVehEntered="8"/>
   <interval begin="900.00" end="1200.00" id="TLS0_my_program_InductLoopOn_2i_0" nVehContrib="0" flow="0.00" occupancy="0.00" speed="-1.00" length="-1.00" nVehEntered="0"/>
   <interval begin="900.00" end="1200.00" id="TLS0_my_program_InductLoopOn_2i_1" nVehContrib="84" flow="1008.00" occupancy="64.38" speed="8.69" length="5.00" nVehEntered="84"/>
   <interval begin="900.00" end="1200.00" id="TLS0_my_program_InductLoopOn_2i_2" nVehContrib="5" flow="60.00" occupancy="0.59" speed="15.20" length="5.00" nVehEntered="5"/>
   <interval begin="900.00" end="1200.00" id="TLS0_my_program_InductLoopOn_3i_0" nVehContrib="0" flow="0.00" occupancy="0.00" speed="-1.00" length="-1.00" nVehEntered="0"/>
   <interval begin="900.00" end="1200.00" id="TLS0_my_program_InductLoopOn_3i_1" nVehContrib="20" flow="240.00" occupancy="40.48" speed="10.21" length="5.00" nVehEntered="20"/>
   <interval begin="900.00" end="1200.00" id="TLS0_my_program_InductLoopOn_3i_2" nVehContrib="7" flow="84.00" occupancy="0.84" speed="14.21" length="5.00" nVehEntered="7"/>
   <interval begin="900.00" end="1200.00" id="TLS0_my_program_InductLoopOn_1i_0" nVehContrib="3" flow="36.00" occupancy="0.37" speed="13.43" length="5.00" nVehEntered="3"/>
   <interval begin="900.00" end="1200.00" id="TLS0_my_program_InductLoopOn_1i_1" nVehContrib="74" flow="888.00" occupancy="60.44" speed="10.40" length="5.00" nVehEntered="74"/>
   <interval begin="900.00" end="1200.00" id="TLS0_my_program_InductLoopOn_1i_2" nVehContrib="7" flow="84.00" occupancy="1.16" speed="11.86" length="5.00" nVehEntered="7"/>
   <interval begin="1200.00" end="1500.00" id="TLS0_my_program_InductLoopOn_4i_0" nVehContrib="0" flow="0.00" occupancy="0.00" speed="-1.00" length="-1.00" nVehEntered="0"/>
   <interval begin="1200.00" end="1500.00" id="TLS0_my_program_InductLoopOn_4i_1" nVehContrib="34" flow="408.00" occupancy="41.57" speed="9.92" length="5.00" nVehEntered="34"/>
   <interval begin="1200.00" end="1500.00" id="TLS0_my_program_InductLoopOn_4i_2" nVehContrib="14" flow="168.00" occupancy="28.15" speed="10.29" length="5.00" nVehEntered="14"/>
   <interval begin="1200.00" end="1500.00" id="TLS0_my_program_InductLoopOn_2i_0" nVehContrib="0" flow="0.00" occupancy="0.00" speed="-1.00" length="-1.00" nVehEntered="0"/>
   <interval begin="1200.00" end="1500.00" id="TLS0_my_program_InductLoopOn_2i_1" nVehContrib="51" flow="612.00" occupancy="60.71" speed="10.34" length="5.00" nVehEntered="51"/>
   <interval begin="1200.00" end="1500.00" id="TLS0_my_program_InductLoopOn_2i_2" nVehContrib="10" flow="120.00" occupancy="1.07" speed="15.76" length="5.00" nVehEntered="10"/>
   <interval begin="1200.00" end="1500.00" id="TLS0_my_program_InductLoopOn_3i_0" nVehContrib="0" flow="0.00" occupancy="0.00" speed="-1.00" length="-1.00" nVehEntered="0"/>
   <interval begin="1200.00" end="1500.00" id="TLS0_my_program_InductLoopOn_3i_1" nVehContrib="41" flow="492.00" occupancy="38.02" speed="9.96" length="5.00" nVehEntered="41"/>
   <interval begin="1200.00" end="1500.00" id="TLS0_my_program_InductLoopOn_3i_2" nVehContrib="14" flow="168.00" occupancy="26.88" speed="7.93" length="5.00" nVehEntered="14"/>
   <interval begin="1200.00" end="1500.00" id="TLS0_my_program_InductLoopOn_1i_0" nVehContrib="1" flow="12.00" occupancy="0.15" speed="10.77" length="5.00" nVehEntered="1"/>
   <interval begin="1200.00" end="1500.00" id="TLS0_my_program_InductLoopOn_1i_1" nVehContrib="18" flow="216.00" occupancy="88.43" speed="7.68" length="5.00" nVehEntered="18"/>
   <interval begin="1200.00" end="1500.00" id="TLS0_my_program_InductLoopOn_1i_2" nVehContrib="7" flow="84.00" occupancy="29.41" speed="13.06" length="5.00" nVehEntered="7"/>
   <interval begin="1500.00" end="1800.00" id="TLS0_my_program_InductLoopOn_4i_0" nVehContrib="0" flow="0.00" occupancy="0.00" speed="-1.00" length="-1.00" nVehEntered="0"/>
   <interval begin="1500.00" end="1800.00" id="TLS0_my_program_InductLoopOn_4i_1" nVehContrib="18" flow="216.00" occupancy="58.33" speed="8.07" length="5.00" nVehEntered="18"/>
   <interval begin="1500.00" end="1800.00" id="TLS0_my_program_InductLoopOn_4i_2" nVehContrib="12" flow="144.00" occupancy="22.96" speed="10.58" length="5.00" nVehEntered="12"/>
   <interval begin="1500.00" end="1800.00" id="TLS0_my_program_InductLoopOn_2i_0" nVehContrib="0" flow="0.00" occupancy="0.00" speed="-1.00" length="-1.00" nVehEntered="0"/>
   <interval begin="1500.00" end="1800.00" id="TLS0_my_program_InductLoopOn_2i_1" nVehContrib="77" flow="924.00" occupancy="48.67" speed="9.43" length="5.00" nVehEntered="77"/>
   <interval begin="1500.00" end="1800.00" id="TLS0_my_program_InductLoopOn_2i_2" nVehContrib="9" flow="108.00" occupancy="9.29" speed="11.53" length="5.00" nVehEntered="9"/>
   <interval begin="1500.00" end="1800.00" id="TLS0_my_program_InductLoopOn_3i_0" nVehContrib="0" flow="0.00" occupancy="0.00" speed="-1.00" length="-1.00" nVehEntered="0"/>
   <interval begin="1500.00" end="1800.00" id="TLS0_my_program_InductLoopOn_3i_1" nVehContrib="27" flow="324.00" occupancy="61.24" speed="8.63" length="5.00" nVehEntered="27"/>
   <interval begin="1500.00" end="1800.00" id="TLS0_my_program_InductLoopOn_3i_2" nVehContrib="5" flow="60.00" occupancy="0.59" speed="14.38" length="5.00" nVehEntered="5"/>
   <interval begin="1500.00" end="1800.00" id="TLS0_my_program_InductLoopOn_1i_0" nVehContrib="13" flow="156.00" occupancy="4.72" speed="7.17" length="5.00" nVehEntered="13"/>
   <interval begin="1500.00" end="1800.00" id="TLS0_my_program_InductLoopOn_1i_1" nVehContrib="33" flow="396.00" occupancy="71.92" speed="4.50" length="5.00" nVehEntered="33"/>
   <interval begin="1500.00" end="1800.00" id="TLS0_my_program_InductLoopOn_1i_2" nVehContrib="15" flow="180.00" occupancy="2.99" speed="8.21" length="5.00" nVehEntered="16"/>
   <interval begin="1800.00" end="2100.00" id="TLS0_my_program_InductLoopOn_4i_0" nVehContrib="0" flow="0.00" occupancy="0.00" speed="-1.00" length="-1.00" nVehEntered="0"/>
   <interval begin="1800.00" end="2100.00" id="TLS0_my_program_InductLoopOn_4i_1" nVehContrib="11" flow="132.00" occupancy="65.18" speed="16.01" length="5.00" nVehEntered="11"/>
   <interval begin="1800.00" end="2100.00" id="TLS0_my_program_InductLoopOn_4i_2" nVehContrib="10" flow="120.00" occupancy="21.89" speed="14.26" length="5.00" nVehEntered="10"/>
   <interval begin="1800.00" end="2100.00" id="TLS0_my_program_InductLoopOn_2i_0" nVehContrib="3" flow="36.00" occupancy="0.35" speed="14.79" length="5.00" nVehEntered="3"/>
   <interval begin="1800.00" end="2100.00" id="TLS0_my_program_InductLoopOn_2i_1" nVehContrib="39" flow="468.00" occupancy="78.54" speed="8.19" length="5.00" nVehEntered="39"/>
   <interval begin="1800.00" end="2100.00" id="TLS0_my_program_InductLoopOn_2i_2" nVehContrib="5" flow="60.00" occupancy="0.69" speed="12.76" length="5.00" nVehEntered="5"/>
   <interval begin="1800.00" end="2100.00" id="TLS0_my_program_InductLoopOn_3i_0" nVehContrib="0" flow="0.00" occupancy="0.00" speed="-1.00" length="-1.00" nVehEntered="0"/>
   <interval begin="1800.00" end="2100.00" id="TLS0_my_program_InductLoopOn_3i_1" nVehContrib="25" flow="300.00" occupancy="42.24" speed="11.58" length="5.00" nVehEntered="25"/>
   <interval begin="1800.00" end="2100.00" id="TLS0_my_program_InductLoopOn_3i_2" nVehContrib="10" flow="120.00" occupancy="10.46" speed="15.07" length="5.00" nVehEntered="10"/>
   <interval begin="1800.00" end="2100.00" id="TLS0_my_program_InductLoopOn_1i_0" nVehContrib="7" flow="84.00" occupancy="65.90" speed="7.64" length="5.00" nVehEntered="8"/>
   <interval begin="1800.00" end="2100.00" id="TLS0_my_program_InductLoopOn_1i_1" nVehContrib="18" flow="216.00" occupancy="82.16" speed="5.03" length="5.00" nVehEntered="18"/>
   <interval begin="1800.00" end="2100.00" id="TLS0_my_program_InductLoopOn_1i_2" nVehContrib="3" flow="36.00" occupancy="1.19" speed="5.97" length="5.00" nVehEntered="3"/>
   <interval begin="2100.00" end="2400.00" id="TLS0_my_program_InductLoopOn_4i_0" nVehContrib="0" flow="0.00" occupancy="0.00" speed="-1.00" length="-1.00" nVehEntered="0"/>
   <interval begin="2100.00" end="2400.00" id="TLS0_my_program_InductLoopOn_4i_1" nVehContrib="49" flow="588.00" occupancy="43.59" speed="10.22" length="5.00" nVehEntered="49"/>
   <interval begin="2100.00" end="2400.00" id="TLS0_my_program_InductLoopOn_4i_2" nVehContrib="9" flow="108.00" occupancy="30.47" speed="11.55" length="5.00" nVehEntered="9"/>
   <interval begin="2100.00" end="2400.00" id="TLS0_my_program_InductLoopOn_2i_0" nVehContrib="10" flow="120.00" occupancy="1.85" speed="11.14" length="5.00" nVehEntered="11"/>
   <interval begin="2100.00" end="2400.00" id="TLS0_my_program_InductLoopOn_2i_1" nVehContrib="9" flow="108.00" occupancy="86.01" speed="4.62" length="5.00" nVehEntered="9"/>
   <interval begin="2100.00" end="2400.00" id="TLS0_my_program_InductLoopOn_2i_2" nVehContrib="7" flow="84.00" occupancy="1.53" speed="12.60" length="5.00" nVehEntered="7"/>
   <interval begin="2100.00" end="2400.00" id="TLS0_my_program_InductLoopOn_3i_0" nVehContrib="0" flow="0.00" occupancy="0.00" speed="-1.00" length="-1.00" nVehEntered="0"/>
   <interval begin="2100.00" end="2400.00" id="TLS0_my_program_InductLoopOn_3i_1" nVehContrib="35" flow="420.00" occupancy="45.04" speed="11.38" length="5.00" nVehEntered="35"/>
   <interval begin="2100.00" end="2400.00" id="TLS0_my_program_InductLoopOn_3i_2" nVehContrib="10" flow="120.00" occupancy="46.07" speed="9.10" length="5.00" nVehEntered="10"/>
   <interval begin="2100.00" end="2400.00" id="TLS0_my_program_InductLoopOn_1i_0" nVehContrib="0" flow="0.00" occupancy="0.00" speed="-1.00" length="-1.00" nVehEntered="2"/>
   <interval begin="2100.00" end="2400.00" id="TLS0_my_program_InductLoopOn_1i_1" nVehContrib="10" flow="120.00" occupancy="89.08" speed="2.98" length="5.00" nVehEntered="10"/>
   <interval begin="2100.00" end="2400.00" id="TLS0_my_program_InductLoopOn_1i_2" nVehContrib="4" flow="48.00" occupancy="0.51" speed="13.19" length="5.00" nVehEntered="4"/>
   <interval begin="2400.00" end="2700.00" id="TLS0_my_program_InductLoopOn_4i_0" nVehContrib="0" flow="0.00" occupancy="0.00" speed="-1.00" length="-1.00" nVehEntered="0"/>
   <interval begin="2400.00" end="2700.00" id="TLS0_my_program_InductLoopOn_4i_1" nVehContrib="20" flow="240.00" occupancy="44.64" speed="12.60" length="5.00" nVehEntered="20"/>
   <interval begin="2400.00" end="2700.00" id="TLS0_my_program_InductLoopOn_4i_2" nVehContrib="8" flow="96.00" occupancy="0.92" speed="15.63" length="5.00" nVehEntered="8"/>
   <interval begin="2400.00" end="2700.00" id="TLS0_my_program_InductLoopOn_2i_0" nVehContrib="4" flow="48.00" occupancy="2.44" speed="4.29" length="5.00" nVehEntered="5"/>
   <interval begin="2400.00" end="2700.00" id="TLS0_my_program_InductLoopOn_2i_1" nVehContrib="7" flow="84.00" occupancy="91.30" speed="1.30" length="5.00" nVehEntered="7"/>
   <interval begin="2400.00" end="2700.00" id="TLS0_my_program_InductLoopOn_2i_2" nVehContrib="7" flow="84.00" occupancy="1.76" speed="9.29" length="5.00" nVehEntered="8"/>
   <interval begin="2400.00" end="2700.00" id="TLS0_my_program_InductLoopOn_3i_0" nVehContrib="0" flow="0.00" occupancy="0.00" speed="-1.00" length="-1.00" nVehEntered="0"/>
   <interval begin="2400.00" end="2700.00" id="TLS0_my_program_InductLoopOn_3i_1" nVehContrib="25" flow="300.00" occupancy="48.12" speed="10.62" length="5.00" nVehEntered="25"/>
   <interval begin="2400.00" end="2700.00" id="TLS0_my_program_InductLoopOn_3i_2" nVehContrib="6" flow="72.00" occupancy="0.63" speed="16.29" length="5.00" nVehEntered="6"/>
   <interval begin="2400.00" end="2700.00" id="TLS0_my_program_InductLoopOn_1i_0" nVehContrib="4" flow="48.00" occupancy="0.63" speed="10.61" length="5.00" nVehEntered="4"/>
   <interval begin="2400.00" end="2700.00" id="TLS0_my_program_InductLoopOn_1i_1" nVehContrib="24" flow="288.00" occupancy="80.02" speed="6.15" length="5.00" nVehEntered="24"/>
   <interval begin="2400.00" end="2700.00" id="TLS0_my_program_InductLoopOn_1i_2" nVehContrib="11" flow="132.00" occupancy="2.29" speed="9.37" length="5.00" nVehEntered="11"/>
   <interval begin="2700.00" end="3000.00" id="TLS0_my_program_InductLoopOn_4i_0" nVehContrib="0" flow="0.00" occupancy="0.00" speed="-1.00" length="-1.00" nVehEntered="0"/>
   <interval begin="2700.00" end="3000.00" id="TLS0_my_program_InductLoopOn_4i_1" nVehContrib="43" flow="516.00" occupancy="58.57" speed="9.36" length="5.00" nVehEntered="43"/>
   <interval begin="2700.00" end="3000.00" id="TLS0_my_program_InductLoopOn_4i_2" nVehContrib="6" flow="72.00" occupancy="0.72" speed="13.91" length="5.00" nVehEntered="6"/>
   <interval begin="2700.00" end="3000.00" id="TLS0_my_program_InductLoopOn_2i_0" nVehContrib="5" flow="60.00" occupancy="6.26" speed="2.20" length="5.00" nVehEntered="6"/>
   <interval begin="2700.00" end="3000.00" id="TLS0_my_program_InductLoopOn_2i_1" nVehContrib="9" flow="108.00" occupancy="88.25" speed="1.22" length="5.00" nVehEntered="9"/>
   <interval begin="2700.00" end="3000.00" id="TLS0_my_program_InductLoopOn_2i_2" nVehContrib="9" flow="108.00" occupancy="22.16" speed="8.51" length="5.00" nVehEntered="10"/>
   <interval begin="2700.00" end="3000.00" id="TLS0_my_program_InductLoopOn_3i_0" nVehContrib="0" flow="0.00" occupancy="0.00" speed="-1.00" length="-1.00" nVehEntered="0"/>
   <interval begin="2700.00" end="3000.00" id="TLS0_my_program_InductLoopOn_3i_1" nVehContrib="55" flow="660.00" occupancy="60.87" speed="9.19" length="5.00" nVehEntered="55"/>
   <interval begin="2700.00" end="3000.00" id="TLS0_my_program_InductLoopOn_3i_2" nVehContrib="10" flow="120.00" occupancy="62.77" speed="8.68" length="5.00" nVehEntered="10"/>
   <interval begin="2700.00" end="3000.00" id="TLS0_my_program_InductLoopOn_1i_0" nVehContrib="0" flow="0.00" occupancy="0.00" speed="-1.00" length="-1.00" nVehEntered="1"/>
   <interval begin="2700.00" end="3000.00" id="TLS0_my_program_InductLoopOn_1i_1" nVehContrib="18" flow="216.00" occupancy="82.60" speed="5.21" length="5.00" nVehEntered="18"/>
   <interval begin="2700.00" end="3000.00" id="TLS0_my_program_InductLoopOn_1i_2" nVehContrib="7" flow="84.00" occupancy="36.69" speed="6.95" length="5.00" nVehEntered="8"/>
   <interval begin="3000.00" end="3300.00" id="TLS0_my_program_InductLoopOn_4i_0" nVehContrib="0" flow="0.00" occupancy="0.00" speed="-1.00" length="-1.00" nVehEntered="0"/>
   <interval begin="3000.00" end="3300.00" id="TLS0_my_program_InductLoopOn_4i_1" nVehContrib="28" flow="336.00" occupancy="44.04" speed="10.65" length="5.00" nVehEntered="28"/>
   <interval begin="3000.00" end="3300.00" id="TLS0_my_program_InductLoopOn_4i_2" nVehContrib="7" flow="84.00" occupancy="19.40" speed="7.37" length="5.00" nVehEntered="7"/>
   <interval begin="3000.00" end="3300.00" id="TLS0_my_program_InductLoopOn_2i_0" nVehContrib="1" flow="12.00" occupancy="0.25" speed="6.66" length="5.00" nVehEntered="2"/>
   <interval begin="3000.00" end="3300.00" id="TLS0_my_program_InductLoopOn_2i_1" nVehContrib="16" flow="192.00" occupancy="80.33" speed="2.96" length="5.00" nVehEntered="16"/>
   <interval begin="3000.00" end="3300.00" id="TLS0_my_program_InductLoopOn_2i_2" nVehContrib="11" flow="132.00" occupancy="3.15" speed="10.50" length="5.00" nVehEntered="12"/>
   <interval begin="3000.00" end="3300.00" id="TLS0_my_program_InductLoopOn_3i_0" nVehContrib="0" flow="0.00" occupancy="0.00" speed="-1.00" length="-1.00" nVehEntered="0"/>
   <interval begin="3000.00" end="3300.00" id="TLS0_my_program_InductLoopOn_3i_1" nVehContrib="32" flow="384.00" occupancy="46.05" speed="10.01" length="5.00" nVehEntered="32"/>
   <interval begin="3000.00" end="3300.00" id="TLS0_my_program_InductLoopOn_3i_2" nVehContrib="19" flow="228.00" occupancy="53.97" speed="7.78" length="5.00" nVehEntered="19"/>
   <interval begin="3000.00" end="3300.00" id="TLS0_my_program_InductLoopOn_1i_0" nVehContrib="3" flow="36.00" occupancy="2.69" speed="1.93" length="5.00" nVehEntered="3"/>
   <interval begin="3000.00" end="3300.00" id="TLS0_my_program_InductLoopOn_1i_1" nVehContrib="12" flow="144.00" occupancy="90.14" speed="2.31" length="5.00" nVehEntered="12"/>
   <interval begin="3000.00" end="3300.00" id="TLS0_my_program_InductLoopOn_1i_2" nVehContrib="12" flow="144.00" occupancy="75.36" speed="5.02" length="5.00" nVehEntered="12"/>
   <interval begin="3300.00" end="3600.00" id="TLS0_my_program_InductLoopOn_4i_0" nVehContrib="0" flow="0.00" occupancy="0.00" speed="-1.00" length="-1.00" nVehEntered="0"/>
   <interval begin="3300.00" end="3600.00" id="TLS0_my_program_InductLoopOn_4i_1" nVehContrib="0" flow="0.00" occupancy="0.00" speed="-1.00" length="-1.00" nVehEntered="0"/>
   <interval begin="3300.00" end="3600.00" id="TLS0_my_program_InductLoopOn_4i_2" nVehContrib="0" flow="0.00" occupancy="0.00" speed="-1.00" length="-1.00" nVehEntered="0"/>
   <interval begin="3300.00" end="3600.00" id="TLS0_my_program_InductLoopOn_2i_0" nVehContrib="13" flow="156.00" occupancy="17.30" speed="5.99" length="5.00" nVehEntered="13"/>
   <interval begin="3300.00" end="3600.00" id="TLS0_my_program_InductLoopOn_2i_1" nVehContrib="28" flow="336.00" occupancy="73.45" speed="3.38" length="5.00" nVehEntered="28"/>
   <interval begin="3300.00" end="3600.00" id="TLS0_my_program_InductLoopOn_2i_2" nVehContrib="17" flow="204.00" occupancy="25.31" speed="5.91" length="5.00" nVehEntered="19"/>
   <interval begin="3300.00" end="3600.00" id="TLS0_my_program_InductLoopOn_3i_0" nVehContrib="0" flow="0.00" occupancy="0.00" speed="-1.00" length="-1.00" nVehEntered="0"/>
   <interval begin="3300.00" end="3600.00" id="TLS0_my_program_InductLoopOn_3i_1" nVehContrib="0" flow="0.00" occupancy="0.00" speed="-1.00" length="-1.00" nVehEntered="0"/>
   <interval begin="3300.00" end="3600.00" id="TLS0_my_program_InductLoopOn_3i_2" nVehContrib="0" flow="0.00" occupancy="0.00" speed="-1.00" length="-1.00" nVehEntered="0"/>
   <interval begin="3300.00" end="3600.00" id="TLS0_my_program_InductLoopOn_1i_0" nVehContrib="5" flow="60.00" occupancy="1.12" speed="7.54" length="5.00" nVehEntered="6"/>
   <interval begin="3300.00" end="3600.00" id="TLS0_my_program_InductLoopOn_1i_1" nVehContrib="30" flow="360.00" occupancy="69.90" speed="5.99" length="5.00" nVehEntered="30"/>
   <interval begin="3300.00" end="3600.00" id="TLS0_my_program_InductLoopOn_1i_2" nVehContrib="19" flow="228.00" occupancy="23.57" speed="6.49" length="5.00" nVehEntered="20"/>
   <interval begin="3600.00" end="3900.00" id="TLS0_my_program_InductLoopOn_4i_0" nVehContrib="0" flow="0.00" occupancy="0.00" speed="-1.00" length="-1.00" nVehEntered="0"/>
   <interval begin="3600.00" end="3900.00" id="TLS0_my_program_InductLoopOn_4i_1" nVehContrib="0" flow="0.00" occupancy="0.00" speed="-1.00" length="-1.00" nVehEntered="0"/>
   <interval begin="3600.00" end="3900.00" id="TLS0_my_program_InductLoopOn_4i_2" nVehContrib="0" flow="0.00" occupancy="0.00" speed="-1.00" length="-1.00" nVehEntered="0"/>
   <interval begin="3600.00" end="3900.00" id="TLS0_my_program_InductLoopOn_2i_0" nVehContrib="6" flow="72.00" occupancy="24.00" speed="3.12" length="5.00" nVehEntered="7"/>
   <interval begin="3600.00" end="3900.00" id="TLS0_my_program_InductLoopOn_2i_1" nVehContrib="6" flow="72.00" occupancy="93.43" speed="1.01" length="5.00" nVehEntered="6"/>
   <interval begin="3600.00" end="3900.00" id="TLS0_my_program_InductLoopOn_2i_2" nVehContrib="7" flow="84.00" occupancy="69.36" speed="2.93" length="5.00" nVehEntered="7"/>
   <interval begin="3600.00" end="3900.00" id="TLS0_my_program_InductLoopOn_3i_0" nVehContrib="0" flow="0.00" occupancy="0.00" speed="-1.00" length="-1.00" nVehEntered="0"/>
   <interval begin="3600.00" end="3900.00" id="TLS0_my_program_InductLoopOn_3i_1" nVehContrib="0" flow="0.00" occupancy="0.00" speed="-1.00" length="-1.00" nVehEntered="0"/>
   <interval begin="3600.00" end="3900.00" id="TLS0_my_program_InductLoopOn_3i_2" nVehContrib="0" flow="0.00" occupancy="0.00" speed="-1.00" length="-1.00" nVehEntered="0"/>
   <interval begin="3600.00" end="3900.00" id="TLS0_my_program_InductLoopOn_1i_0" nVehContrib="9" flow="108.00" occupancy="6.30" speed="4.84" length="5.00" nVehEntered="9"/>
   <interval begin="3600.00" end="3900.00" id="TLS0_my_program_InductLoopOn_1i_1" nVehContrib="9" flow="108.00" occupancy="86.07" speed="1.87" length="5.00" nVehEntered="9"/>
   <interval begin="3600.00" end="3900.00" id="TLS0_my_program_InductLoopOn_1i_2" nVehContrib="13" flow="156.00" occupancy="73.37" speed="4.47" length="5.00" nVehEntered="15"/>
   <interval begin="3900.00" end="4200.00" id="TLS0_my_program_InductLoopOn_4i_0" nVehContrib="0" flow="0.00" occupancy="0.00" speed="-1.00" length="-1.00" nVehEntered="0"/>
   <interval begin="3900.00" end="4200.00" id="TLS0_my_program_InductLoopOn_4i_1" nVehContrib="0" flow="0.00" occupancy="0.00" speed="-1.00" length="-1.00" nVehEntered="0"/>
   <interval begin="3900.00" end="4200.00" id="TLS0_my_program_InductLoopOn_4i_2" nVehContrib="0" flow="0.00" occupancy="0.00" speed="-1.00" length="-1.00" nVehEntered="0"/>
   <interval begin="3900.00" end="4200.00" id="TLS0_my_program_InductLoopOn_2i_0" nVehContrib="6" flow="72.00" occupancy="3.25" speed="3.65" length="5.00" nVehEntered="7"/>
   <interval begin="3900.00" end="4200.00" id="TLS0_my_program_InductLoopOn_2i_1" nVehContrib="5" flow="60.00" occupancy="81.83" speed="2.76" length="5.00" nVehEntered="5"/>
   <interval begin="3900.00" end="4200.00" id="TLS0_my_program_InductLoopOn_2i_2" nVehContrib="6" flow="72.00" occupancy="5.81" speed="4.03" length="5.00" nVehEntered="12"/>
   <interval begin="3900.00" end="4200.00" id="TLS0_my_program_InductLoopOn_3i_0" nVehContrib="0" flow="0.00" occupancy="0.00" speed="-1.00" length="-1.00" nVehEntered="0"/>
   <interval begin="3900.00" end="4200.00" id="TLS0_my_program_InductLoopOn_3i_1" nVehContrib="0" flow="0.00" occupancy="0.00" speed="-1.00" length="-1.00" nVehEntered="0"/>
   <interval begin="3900.00" end="4200.00" id="TLS0_my_program_InductLoopOn_3i_2" nVehContrib="0" flow="0.00" occupancy="0.00" speed="-1.00" length="-1.00" nVehEntered="0"/>