<?xml version="1.0" encoding="UTF-8"?>

<!-- generated on Thu 02 May 2019 02:34:04 PM PDT by SUMO gui Version 0.25.0
<?xml version="1.0" encoding="UTF-8"?>

<configuration xmlns:xsi="http://www.w3.org/2001/XMLSchema-instance" xsi:noNamespaceSchemaLocation="http://sumo.dlr.de/xsd/sumo-gui.exeConfiguration.xsd">

    <input>
        <net-file value="va_data/cross.net.xml"/>
        <route-files value="va_data/cross.rou.xml"/>
        <additional-files value="va_data/cross3.add.xml"/>
    </input>

    <output>
        <tripinfo-output value="OUTPUT/trip_infoq5.xml"/>
        <save-state.prefix value="va_data/state"/>
    </output>

    <time>
        <begin value="0"/>
        <end value="50"/>
    </time>

    <emissions>
        <phemlight-path value="va_data/./PHEMlight/"/>
    </emissions>

    <traci_server>
        <remote-port value="8873"/>
    </traci_server>

</configuration>
-->

<detector xmlns:xsi="http://www.w3.org/2001/XMLSchema-instance" xsi:noNamespaceSchemaLocation="http://sumo.dlr.de/xsd/det_e1_file.xsd">
   <interval begin="0.00" end="300.00" id="TLS0_my_program_InductLoopOn_4i_0" nVehContrib="7" flow="84.00" occupancy="0.69" speed="16.88" length="5.00" nVehEntered="7"/>
   <interval begin="0.00" end="300.00" id="TLS0_my_program_InductLoopOn_4i_1" nVehContrib="13" flow="156.00" occupancy="8.18" speed="11.97" length="5.00" nVehEntered="13"/>
   <interval begin="0.00" end="300.00" id="TLS0_my_program_InductLoopOn_4i_2" nVehContrib="5" flow="60.00" occupancy="0.57" speed="15.19" length="5.00" nVehEntered="5"/>
   <interval begin="0.00" end="300.00" id="TLS0_my_program_InductLoopOn_2i_0" nVehContrib="6" flow="72.00" occupancy="0.63" speed="16.04" length="5.00" nVehEntered="6"/>
   <interval begin="0.00" end="300.00" id="TLS0_my_program_InductLoopOn_2i_1" nVehContrib="32" flow="384.00" occupancy="35.79" speed="8.88" length="5.00" nVehEntered="32"/>
   <interval begin="0.00" end="300.00" id="TLS0_my_program_InductLoopOn_2i_2" nVehContrib="8" flow="96.00" occupancy="1.00" speed="13.60" length="5.00" nVehEntered="8"/>
   <interval begin="0.00" end="300.00" id="TLS0_my_program_InductLoopOn_3i_0" nVehContrib="15" flow="180.00" occupancy="1.52" speed="16.49" length="5.00" nVehEntered="15"/>
   <interval begin="0.00" end="300.00" id="TLS0_my_program_InductLoopOn_3i_1" nVehContrib="12" flow="144.00" occupancy="12.19" speed="13.10" length="5.00" nVehEntered="12"/>
   <interval begin="0.00" end="300.00" id="TLS0_my_program_InductLoopOn_3i_2" nVehContrib="11" flow="132.00" occupancy="3.24" speed="12.83" length="5.00" nVehEntered="11"/>
   <interval begin="0.00" end="300.00" id="TLS0_my_program_InductLoopOn_1i_0" nVehContrib="10" flow="120.00" occupancy="1.10" speed="15.56" length="5.00" nVehEntered="10"/>
   <interval begin="0.00" end="300.00" id="TLS0_my_program_InductLoopOn_1i_1" nVehContrib="17" flow="204.00" occupancy="2.58" speed="13.27" length="5.00" nVehEntered="17"/>
   <interval begin="0.00" end="300.00" id="TLS0_my_program_InductLoopOn_1i_2" nVehContrib="9" flow="108.00" occupancy="44.47" speed="8.65" length="5.00" nVehEntered="9"/>
   <interval begin="300.00" end="600.00" id="TLS0_my_program_InductLoopOn_4i_0" nVehContrib="6" flow="72.00" occupancy="0.62" speed="16.18" length="5.00" nVehEntered="6"/>
   <interval begin="300.00" end="600.00" id="TLS0_my_program_InductLoopOn_4i_1" nVehContrib="27" flow="324.00" occupancy="32.50" speed="9.33" length="5.00" nVehEntered="27"/>
   <interval begin="300.00" end="600.00" id="TLS0_my_program_InductLoopOn_4i_2" nVehContrib="9" flow="108.00" occupancy="19.75" speed="10.34" length="5.00" nVehEntered="9"/>
   <interval begin="300.00" end="600.00" id="TLS0_my_program_InductLoopOn_2i_0" nVehContrib="4" flow="48.00" occupancy="0.43" speed="15.75" length="5.00" nVehEntered="4"/>
   <interval begin="300.00" end="600.00" id="TLS0_my_program_InductLoopOn_2i_1" nVehContrib="39" flow="468.00" occupancy="57.18" speed="7.51" length="5.00" nVehEntered="39"/>
   <interval begin="300.00" end="600.00" id="TLS0_my_program_InductLoopOn_2i_2" nVehContrib="11" flow="132.00" occupancy="12.88" speed="6.95" length="5.00" nVehEntered="11"/>
   <interval begin="300.00" end="600.00" id="TLS0_my_program_InductLoopOn_3i_0" nVehContrib="7" flow="84.00" occupancy="0.71" speed="16.54" length="5.00" nVehEntered="7"/>
   <interval begin="300.00" end="600.00" id="TLS0_my_program_InductLoopOn_3i_1" nVehContrib="25" flow="300.00" occupancy="28.35" speed="8.23" length="5.00" nVehEntered="25"/>
   <interval begin="300.00" end="600.00" id="TLS0_my_program_InductLoopOn_3i_2" nVehContrib="14" flow="168.00" occupancy="34.36" speed="10.30" length="5.00" nVehEntered="14"/>
   <interval begin="300.00" end="600.00" id="TLS0_my_program_InductLoopOn_1i_0" nVehContrib="13" flow="156.00" occupancy="1.43" speed="15.23" length="5.00" nVehEntered="13"/>
   <interval begin="300.00" end="600.00" id="TLS0_my_program_InductLoopOn_1i_1" nVehContrib="28" flow="336.00" occupancy="32.40" speed="9.63" length="5.00" nVehEntered="28"/>
   <interval begin="300.00" end="600.00" id="TLS0_my_program_InductLoopOn_1i_2" nVehContrib="6" flow="72.00" occupancy="0.80" speed="13.83" length="5.00" nVehEntered="6"/>
   <interval begin="600.00" end="900.00" id="TLS0_my_program_InductLoopOn_4i_0" nVehContrib="4" flow="48.00" occupancy="0.43" speed="15.70" length="5.00" nVehEntered="4"/>
   <interval begin="600.00" end="900.00" id="TLS0_my_program_InductLoopOn_4i_1" nVehContrib="24" flow="288.00" occupancy="36.44" speed="8.81" length="5.00" nVehEntered="24"/>
   <interval begin="600.00" end="900.00" id="TLS0_my_program_InductLoopOn_4i_2" nVehContrib="7" flow="84.00" occupancy="37.31" speed="9.65" length="5.00" nVehEntered="7"/>
   <interval begin="600.00" end="900.00" id="TLS0_my_program_InductLoopOn_2i_0" nVehContrib="7" flow="84.00" occupancy="0.69" speed="17.01" length="5.00" nVehEntered="7"/>
   <interval begin="600.00" end="900.00" id="TLS0_my_program_InductLoopOn_2i_1" nVehContrib="37" flow="444.00" occupancy="80.17" speed="4.86" length="5.00" nVehEntered="37"/>
   <interval begin="600.00" end="900.00" id="TLS0_my_program_InductLoopOn_2i_2" nVehContrib="11" flow="132.00" occupancy="14.24" speed="12.92" length="5.00" nVehEntered="11"/>
   <interval begin="600.00" end="900.00" id="TLS0_my_program_InductLoopOn_3i_0" nVehContrib="14" flow="168.00" occupancy="1.53" speed="15.45" length="5.00" nVehEntered="14"/>
   <interval begin="600.00" end="900.00" id="TLS0_my_program_InductLoopOn_3i_1" nVehContrib="19" flow="228.00" occupancy="18.00" speed="10.75" length="5.00" nVehEntered="19"/>
   <interval begin="600.00" end="900.00" id="TLS0_my_program_InductLoopOn_3i_2" nVehContrib="20" flow="240.00" occupancy="66.60" speed="6.11" length="5.00" nVehEntered="20"/>
   <interval begin="600.00" end="900.00" id="TLS0_my_program_InductLoopOn_1i_0" nVehContrib="17" flow="204.00" occupancy="1.80" speed="15.83" length="5.00" nVehEntered="17"/>
   <interval begin="600.00" end="900.00" id="TLS0_my_program_InductLoopOn_1i_1" nVehContrib="15" flow="180.00" occupancy="38.26" speed="10.86" length="5.00" nVehEntered="15"/>
   <interval begin="600.00" end="900.00" id="TLS0_my_program_InductLoopOn_1i_2" nVehContrib="13" flow="156.00" occupancy="53.75" speed="6.57" length="5.00" nVehEntered="13"/>
   <interval begin="900.00" end="1200.00" id="TLS0_my_program_InductLoopOn_4i_0" nVehContrib="13" flow="156.00" occupancy="1.37" speed="15.84" length="5.00" nVehEntered="13"/>
   <interval begin="900.00" end="1200.00" id="TLS0_my_program_InductLoopOn_4i_1" nVehContrib="24" flow="288.00" occupancy="57.89" speed="7.87" length="5.00" nVehEntered="24"/>
   <interval begin="900.00" end="1200.00" id="TLS0_my_program_InductLoopOn_4i_2" nVehContrib="6" flow="72.00" occupancy="17.36" speed="10.22" length="5.00" nVehEntered="6"/>
   <interval begin="900.00" end="1200.00" id="TLS0_my_program_InductLoopOn_2i_0" nVehContrib="5" flow="60.00" occupancy="0.56" speed="14.95" length="5.00" nVehEntered="5"/>
   <interval begin="900.00" end="1200.00" id="TLS0_my_program_InductLoopOn_2i_1" nVehContrib="53" flow="636.00" occupancy="43.24" speed="6.88" length="5.00" nVehEntered="53"/>
   <interval begin="900.00" end="1200.00" id="TLS0_my_program_InductLoopOn_2i_2" nVehContrib="10" flow="120.00" occupancy="31.77" speed="10.04" length="5.00" nVehEntered="10"/>
   <interval begin="900.00" end="1200.00" id="TLS0_my_program_InductLoopOn_3i_0" nVehContrib="8" flow="96.00" occupancy="0.89" speed="15.21" length="5.00" nVehEntered="8"/>
   <interval begin="900.00" end="1200.00" id="TLS0_my_program_InductLoopOn_3i_1" nVehContrib="16" flow="192.00" occupancy="45.51" speed="9.18" length="5.00" nVehEntered="16"/>
   <interval begin="900.00" end="1200.00" id="TLS0_my_program_InductLoopOn_3i_2" nVehContrib="30" flow="360.00" occupancy="33.84" speed="9.76" length="5.00" nVehEntered="30"/>
   <interval begin="900.00" end="1200.00" id="TLS0_my_program_InductLoopOn_1i_0" nVehContrib="9" flow="108.00" occupancy="0.91" speed="16.53" length="5.00" nVehEntered="9"/>
   <interval begin="900.00" end="1200.00" id="TLS0_my_program_InductLoopOn_1i_1" nVehContrib="27" flow="324.00" occupancy="40.32" speed="7.78" length="5.00" nVehEntered="27"/>
   <interval begin="900.00" end="1200.00" id="TLS0_my_program_InductLoopOn_1i_2" nVehContrib="7" flow="84.00" occupancy="36.92" speed="9.46" length="5.00" nVehEntered="7"/>
   <interval begin="1200.00" end="1500.00" id="TLS0_my_program_InductLoopOn_4i_0" nVehContrib="6" flow="72.00" occupancy="0.59" speed="16.84" length="5.00" nVehEntered="6"/>
   <interval begin="1200.00" end="1500.00" id="TLS0_my_program_InductLoopOn_4i_1" nVehContrib="21" flow="252.00" occupancy="36.76" speed="9.69" length="5.00" nVehEntered="21"/>
   <interval begin="1200.00" end="1500.00" id="TLS0_my_program_InductLoopOn_4i_2" nVehContrib="11" flow="132.00" occupancy="23.12" speed="7.77" length="5.00" nVehEntered="11"/>
   <interval begin="1200.00" end="1500.00" id="TLS0_my_program_InductLoopOn_2i_0" nVehContrib="3" flow="36.00" occupancy="0.29" speed="17.28" length="5.00" nVehEntered="3"/>
   <interval begin="1200.00" end="1500.00" id="TLS0_my_program_InductLoopOn_2i_1" nVehContrib="41" flow="492.00" occupancy="75.56" speed="4.85" length="5.00" nVehEntered="41"/>
   <interval begin="1200.00" end="1500.00" id="TLS0_my_program_InductLoopOn_2i_2" nVehContrib="11" flow="132.00" occupancy="19.71" speed="11.41" length="5.00" nVehEntered="11"/>
   <interval begin="1200.00" end="1500.00" id="TLS0_my_program_InductLoopOn_3i_0" nVehContrib="18" flow="216.00" occupancy="1.90" speed="15.94" length="5.00" nVehEntered="18"/>
   <interval begin="1200.00" end="1500.00" id="TLS0_my_program_InductLoopOn_3i_1" nVehContrib="26" flow="312.00" occupancy="47.47" speed="5.86" length="5.00" nVehEntered="26"/>
   <interval begin="1200.00" end="1500.00" id="TLS0_my_program_InductLoopOn_3i_2" nVehContrib="17" flow="204.00" occupancy="37.82" speed="8.29" length="5.00" nVehEntered="17"/>
   <interval begin="1200.00" end="1500.00" id="TLS0_my_program_InductLoopOn_1i_0" nVehContrib="7" flow="84.00" occupancy="0.78" speed="15.04" length="5.00" nVehEntered="7"/>
   <interval begin="1200.00" end="1500.00" id="TLS0_my_program_InductLoopOn_1i_1" nVehContrib="25" flow="300.00" occupancy="21.86" speed="8.50" length="5.00" nVehEntered="25"/>
   <interval begin="1200.00" end="1500.00" id="TLS0_my_program_InductLoopOn_1i_2" nVehContrib="1" flow="12.00" occupancy="99.19" speed="0.03" length="5.00" nVehEntered="1"/>
   <interval begin="1500.00" end="1800.00" id="TLS0_my_program_InductLoopOn_4i_0" nVehContrib="10" flow="120.00" occupancy="1.10" speed="15.29" length="5.00" nVehEntered="10"/>
   <interval begin="1500.00" end="1800.00" id="TLS0_my_program_InductLoopOn_4i_1" nVehContrib="33" flow="396.00" occupancy="36.02" speed="8.31" length="5.00" nVehEntered="33"/>
   <interval begin="1500.00" end="1800.00" id="TLS0_my_program_InductLoopOn_4i_2" nVehContrib="11" flow="132.00" occupancy="21.34" speed="9.75" length="5.00" nVehEntered="11"/>
   <interval begin="1500.00" end="1800.00" id="TLS0_my_program_InductLoopOn_2i_0" nVehContrib="7" flow="84.00" occupancy="0.67" speed="17.52" length="5.00" nVehEntered="7"/>
   <interval begin="1500.00" end="1800.00" id="TLS0_my_program_InductLoopOn_2i_1" nVehContrib="42" flow="504.00" occupancy="72.91" speed="6.49" length="5.00" nVehEntered="42"/>
   <interval begin="1500.00" end="1800.00" id="TLS0_my_program_InductLoopOn_2i_2" nVehContrib="15" flow="180.00" occupancy="26.46" speed="10.20" length="5.00" nVehEntered="15"/>
   <interval begin="1500.00" end="1800.00" id="TLS0_my_program_InductLoopOn_3i_0" nVehContrib="19" flow="228.00" occupancy="2.02" speed="15.90" length="5.00" nVehEntered="19"/>
   <interval begin="1500.00" end="1800.00" id="TLS0_my_program_InductLoopOn_3i_1" nVehContrib="18" flow="216.00" occupancy="42.71" speed="8.72" length="5.00" nVehEntered="18"/>
   <interval begin="1500.00" end="1800.00" id="TLS0_my_program_InductLoopOn_3i_2" nVehContrib="22" flow="264.00" occupancy="36.81" speed="8.25" length="5.00" nVehEntered="22"/>
   <interval begin="1500.00" end="1800.00" id="TLS0_my_program_InductLoopOn_1i_0" nVehContrib="10" flow="120.00" occupancy="0.99" speed="16.90" length="5.00" nVehEntered="10"/>
   <interval begin="1500.00" end="1800.00" id="TLS0_my_program_InductLoopOn_1i_1" nVehContrib="16" flow="192.00" occupancy="29.71" speed="9.72" length="5.00" nVehEntered="16"/>
   <interval begin="1500.00" end="1800.00" id="TLS0_my_program_InductLoopOn_1i_2" nVehContrib="2" flow="24.00" occupancy="98.34" speed="0.02" length="5.00" nVehEntered="2"/>
   <interval begin="1800.00" end="2100.00" id="TLS0_my_program_InductLoopOn_4i_0" nVehContrib="1" flow="12.00" occupancy="0.12" speed="13.88" length="5.00" nVehEntered="1"/>
   <interval begin="1800.00" end="2100.00" id="TLS0_my_program_InductLoopOn_4i_1" nVehContrib="6" flow="72.00" occupancy="17.33" speed="3.82" length="5.00" nVehEntered="6"/>
   <interval begin="1800.00" end="2100.00" id="TLS0_my_program_InductLoopOn_4i_2" nVehContrib="0" flow="0.00" occupancy="0.00" speed="-1.00" length="-1.00" nVehEntered="0"/>
   <interval begin="1800.00" end="2100.00" id="TLS0_my_program_InductLoopOn_2i_0" nVehContrib="8" flow="96.00" occupancy="0.78" speed="17.04" length="5.00" nVehEntered="8"/>
   <interval begin="1800.00" end="2100.00" id="TLS0_my_program_InductLoopOn_2i_1" nVehContrib="47" flow="564.00" occupancy="59.27" speed="7.09" length="5.00" nVehEntered="47"/>
   <interval begin="1800.00" end="2100.00" id="TLS0_my_program_InductLoopOn_2i_2" nVehContrib="13" flow="156.00" occupancy="21.25" speed="12.25" length="5.00" nVehEntered="13"/>
   <interval begin="1800.00" end="2100.00" id="TLS0_my_program_InductLoopOn_3i_0" nVehContrib="14" flow="168.00" occupancy="1.45" speed="16.26" length="5.00" nVehEntered="14"/>
   <interval begin="1800.00" end="2100.00" id="TLS0_my_program_InductLoopOn_3i_1" nVehContrib="17" flow="204.00" occupancy="32.25" speed="6.77" length="5.00" nVehEntered="17"/>
   <interval begin="1800.00" end="2100.00" id="TLS0_my_program_InductLoopOn_3i_2" nVehContrib="12" flow="144.00" occupancy="10.68" speed="10.63" length="5.00" nVehEntered="12"/>
   <interval begin="1800.00" end="2100.00" id="TLS0_my_program_InductLoopOn_1i_0" nVehContrib="1" flow="12.00" occupancy="0.13" speed="12.85" length="5.00" nVehEntered="1"/>
   <interval begin="1800.00" end="2100.00" id="TLS0_my_program_InductLoopOn_1i_1" nVehContrib="4" flow="48.00" occupancy="1.11" speed="7.04" length="5.00" nVehEntered="4"/>
   <interval begin="1800.00" end="2100.00" id="TLS0_my_program_InductLoopOn_1i_2" nVehContrib="12" flow="144.00" occupancy="3.33" speed="6.74" length="5.00" nVehEntered="12"/>
   <interval begin="2100.00" end="2400.00" id="TLS0_my_program_InductLoopOn_4i_0" nVehContrib="0" flow="0.00" occupancy="0.00" speed="-1.00" length="-1.00" nVehEntered="0"/>
   <interval begin="2100.00" end="2400.00" id="TLS0_my_program_InductLoopOn_4i_1" nVehContrib="0" flow="0.00" occupancy="0.00" speed="-1.00" length="-1.00" nVehEntered="0"/>
   <interval begin="2100.00" end="2400.00" id="TLS0_my_program_InductLoopOn_4i_2" nVehContrib="0" flow="0.00" occupancy="0.00" speed="-1.00" length="-1.00" nVehEntered="0"/>
   <interval begin="2100.00" end="2400.00" id="TLS0_my_program_InductLoopOn_2i_0" nVehContrib="2" flow="24.00" occupancy="0.20" speed="16.55" length="5.00" nVehEntered="2"/>
   <interval begin="2100.00" end="2400.00" id="TLS0_my_program_InductLoopOn_2i_1" nVehContrib="21" flow="252.00" occupancy="2.05" speed="17.18" length="5.00" nVehEntered="21"/>
   <interval begin="2100.00" end="2400.00" id="TLS0_my_program_InductLoopOn_2i_2" nVehContrib="11" flow="132.00" occupancy="1.04" speed="17.80" length="5.00" nVehEntered="11"/>
   <interval begin="2100.00" end="2400.00" id="TLS0_my_program_InductLoopOn_3i_0" nVehContrib="0" flow="0.00" occupancy="0.00" speed="-1.00" length="-1.00" nVehEntered="0"/>
   <interval begin="2100.00" end="2400.00" id="TLS0_my_program_InductLoopOn_3i_1" nVehContrib="0" flow="0.00" occupancy="0.00" speed="-1.00" length="-1.00" nVehEntered="0"/>
   <interval begin="2100.00" end="2400.00" id="TLS0_my_program_InductLoopOn_3i_2" nVehContrib="0" flow="0.00" occupancy="0.00" speed="-1.00" length="-1.00" nVehEntered="0"/>
   <interval begin="2100.00" end="2400.00" id="TLS0_my_program_InductLoopOn_1i_0" nVehContrib="0" flow="0.00" occupancy="0.00" speed="-1.00" length="-1.00" nVehEntered="0"/>
   <interval begin="2100.00" end="2400.00" id="TLS0_my_program_InductLoopOn_1i_1" nVehContrib="0" flow="0.00" occupancy="0.00" speed="-1.00" length="-1.00" nVehEntered="0"/>
   <interval begin="2100.00" end="2400.00" id="TLS0_my_program_InductLoopOn_1i_2" nVehContrib="0" flow="0.00" occupancy="0.00" speed="-1.00" length="-1.00" nVehEntered="0"/>
   <interval begin="2400.00" end="2414.00" id="TLS0_my_program_InductLoopOn_4i_0" nVehContrib="0" flow="0.00" occupancy="0.00" speed="-1.00" length="-1.00" nVehEntered="0"/>
   <interval begin="2400.00" end="2414.00" id="TLS0_my_program_InductLoopOn_4i_1" nVehContrib="0" flow="0.00" occupancy="0.00" speed="-1.00" length="-1.00" nVehEntered="0"/>
   <interval begin="2400.00" end="2414.00" id="TLS0_my_program_InductLoopOn_4i_2" nVehContrib="0" flow="0.00" occupancy="0.00" speed="-1.00" length="-1.00" nVehEntered="0"/>
   <interval begin="2400.00" end="2414.00" id="TLS0_my_program_InductLoopOn_2i_0" nVehContrib="0" flow="0.00" occupancy="0.00" speed="-1.00" length="-1.00" nVehEntered="0"/>
   <interval begin="2400.00" end="2414.00" id="TLS0_my_program_InductLoopOn_2i_1" nVehContrib="0" flow="0.00" occupancy="0.00" speed="-1.00" length="-1.00" nVehEntered="0"/>
   <interval begin="2400.00" end="2414.00" id="TLS0_my_program_InductLoopOn_2i_2" nVehContrib="0" flow="0.00" occupancy="0.00" speed="-1.00" length="-1.00" nVehEntered="0"/>
   <interval begin="2400.00" end="2414.00" id="TLS0_my_program_InductLoopOn_3i_0" nVehContrib="0" flow="0.00" occupancy="0.00" speed="-1.00" length="-1.00" nVehEntered="0"/>
   <interval begin="2400.00" end="2414.00" id="TLS0_my_program_InductLoopOn_3i_1" nVehContrib="0" flow="0.00" occupancy="0.00" speed="-1.00" length="-1.00" nVehEntered="0"/>
   <interval begin="2400.00" end="2414.00" id="TLS0_my_program_InductLoopOn_3i_2" nVehContrib="0" flow="0.00" occupancy="0.00" speed="-1.00" length="-1.00" nVehEntered="0"/>
   <interval begin="2400.00" end="2414.00" id="TLS0_my_program_InductLoopOn_1i_0" nVehContrib="0" flow="0.00" occupancy="0.00" speed="-1.00" length="-1.00" nVehEntered="0"/>
   <interval begin="2400.00" end="2414.00" id="TLS0_my_program_InductLoopOn_1i_1" nVehContrib="0" flow="0.00" occupancy="0.00" speed="-1.00" length="-1.00" nVehEntered="0"/>
   <interval begin="2400.00" end="2414.00" id="TLS0_my_program_InductLoopOn_1i_2" nVehContrib="0" flow="0.00" occupancy="0.00" speed="-1.00" length="-1.00" nVehEntered="0"/>
</detector>
