<?xml version="1.0" encoding="UTF-8"?>

<!-- generated on Fri 05 Apr 2019 01:31:53 PM PDT by SUMO gui Version 0.25.0
<?xml version="1.0" encoding="UTF-8"?>

<configuration xmlns:xsi="http://www.w3.org/2001/XMLSchema-instance" xsi:noNamespaceSchemaLocation="http://sumo.dlr.de/xsd/sumo-gui.exeConfiguration.xsd">

    <input>
        <net-file value="va_data/cross.net.xml"/>
        <route-files value="va_data/cross.rou.xml"/>
        <additional-files value="va_data/cross.add.xml"/>
    </input>

    <output>
        <summary-output value="tripinfo_va.xml"/>
        <save-state.prefix value="va_data/state"/>
    </output>

    <time>
        <begin value="0"/>
        <end value="50"/>
    </time>

    <emissions>
        <phemlight-path value="va_data/./PHEMlight/"/>
    </emissions>

    <traci_server>
        <remote-port value="8873"/>
    </traci_server>

</configuration>
-->

<detector xmlns:xsi="http://www.w3.org/2001/XMLSchema-instance"
          xsi:noNamespaceSchemaLocation="http://sumo.dlr.de/xsd/det_e1_file.xsd">
    <interval begin="0.00" end="900.00" id="1i_1" nVehContrib="198" flow="792.00" occupancy="26.70" speed="14.86"
              length="5.00" nVehEntered="198"/>
    <interval begin="0.00" end="900.00" id="1i_2" nVehContrib="20" flow="80.00" occupancy="0.57" speed="19.44"
              length="5.00" nVehEntered="20"/>
    <interval begin="0.00" end="900.00" id="2i_1" nVehContrib="195" flow="780.00" occupancy="9.49" speed="17.54"
              length="5.00" nVehEntered="195"/>
    <interval begin="0.00" end="900.00" id="2i_2" nVehContrib="22" flow="88.00" occupancy="0.63" speed="19.44"
              length="5.00" nVehEntered="22"/>
    <interval begin="0.00" end="900.00" id="3i_1" nVehContrib="32" flow="128.00" occupancy="0.91" speed="19.44"
              length="5.00" nVehEntered="32"/>
    <interval begin="0.00" end="900.00" id="3i_2" nVehContrib="35" flow="140.00" occupancy="1.00" speed="19.44"
              length="5.00" nVehEntered="35"/>
    <interval begin="0.00" end="900.00" id="4i_1" nVehContrib="25" flow="100.00" occupancy="0.71" speed="19.44"
              length="5.00" nVehEntered="25"/>
    <interval begin="0.00" end="900.00" id="4i_2" nVehContrib="36" flow="144.00" occupancy="1.03" speed="19.44"
              length="5.00" nVehEntered="36"/>
    <interval begin="900.00" end="1800.00" id="1i_1" nVehContrib="209" flow="836.00" occupancy="33.21" speed="13.86"
              length="5.00" nVehEntered="209"/>
    <interval begin="900.00" end="1800.00" id="1i_2" nVehContrib="16" flow="64.00" occupancy="0.46" speed="19.44"
              length="5.00" nVehEntered="16"/>
    <interval begin="900.00" end="1800.00" id="2i_1" nVehContrib="203" flow="812.00" occupancy="6.51" speed="18.02"
              length="5.00" nVehEntered="203"/>
    <interval begin="900.00" end="1800.00" id="2i_2" nVehContrib="22" flow="88.00" occupancy="0.63" speed="19.44"
              length="5.00" nVehEntered="22"/>
    <interval begin="900.00" end="1800.00" id="3i_1" nVehContrib="27" flow="108.00" occupancy="0.77" speed="19.44"
              length="5.00" nVehEntered="27"/>
    <interval begin="900.00" end="1800.00" id="3i_2" nVehContrib="36" flow="144.00" occupancy="1.03" speed="19.44"
              length="5.00" nVehEntered="36"/>
    <interval begin="900.00" end="1800.00" id="4i_1" nVehContrib="35" flow="140.00" occupancy="1.00" speed="19.44"
              length="5.00" nVehEntered="35"/>
    <interval begin="900.00" end="1800.00" id="4i_2" nVehContrib="32" flow="128.00" occupancy="0.91" speed="19.44"
              length="5.00" nVehEntered="32"/>
    <interval begin="1800.00" end="2700.00" id="1i_1" nVehContrib="202" flow="808.00" occupancy="29.37" speed="14.43"
              length="5.00" nVehEntered="202"/>
    <interval begin="1800.00" end="2700.00" id="1i_2" nVehContrib="23" flow="92.00" occupancy="0.66" speed="19.44"
              length="5.00" nVehEntered="23"/>
    <interval begin="1800.00" end="2700.00" id="2i_1" nVehContrib="196" flow="784.00" occupancy="6.05" speed="18.52"
              length="5.00" nVehEntered="196"/>
    <interval begin="1800.00" end="2700.00" id="2i_2" nVehContrib="29" flow="116.00" occupancy="0.84" speed="19.44"
              length="5.00" nVehEntered="29"/>
    <interval begin="1800.00" end="2700.00" id="3i_1" nVehContrib="27" flow="108.00" occupancy="0.77" speed="19.44"
              length="5.00" nVehEntered="27"/>
    <interval begin="1800.00" end="2700.00" id="3i_2" nVehContrib="36" flow="144.00" occupancy="1.03" speed="19.44"
              length="5.00" nVehEntered="36"/>
    <interval begin="1800.00" end="2700.00" id="4i_1" nVehContrib="35" flow="140.00" occupancy="1.00" speed="19.43"
              length="5.00" nVehEntered="35"/>
    <interval begin="1800.00" end="2700.00" id="4i_2" nVehContrib="25" flow="100.00" occupancy="0.71" speed="19.44"
              length="5.00" nVehEntered="25"/>
    <interval begin="2700.00" end="3600.00" id="1i_1" nVehContrib="206" flow="824.00" occupancy="28.92" speed="14.36"
              length="5.00" nVehEntered="206"/>
    <interval begin="2700.00" end="3600.00" id="1i_2" nVehContrib="19" flow="76.00" occupancy="0.54" speed="19.44"
              length="5.00" nVehEntered="19"/>
    <interval begin="2700.00" end="3600.00" id="2i_1" nVehContrib="205" flow="820.00" occupancy="9.62" speed="17.29"
              length="5.00" nVehEntered="205"/>
    <interval begin="2700.00" end="3600.00" id="2i_2" nVehContrib="20" flow="80.00" occupancy="0.56" speed="19.44"
              length="5.00" nVehEntered="20"/>
    <interval begin="2700.00" end="3600.00" id="3i_1" nVehContrib="14" flow="56.00" occupancy="0.40" speed="19.44"
              length="5.00" nVehEntered="14"/>
    <interval begin="2700.00" end="3600.00" id="3i_2" nVehContrib="23" flow="92.00" occupancy="0.66" speed="19.44"
              length="5.00" nVehEntered="23"/>
    <interval begin="2700.00" end="3600.00" id="4i_1" nVehContrib="18" flow="72.00" occupancy="0.52" speed="19.21"
              length="5.00" nVehEntered="18"/>
    <interval begin="2700.00" end="3600.00" id="4i_2" nVehContrib="18" flow="72.00" occupancy="0.51" speed="19.44"
              length="5.00" nVehEntered="18"/>
    <interval begin="3600.00" end="4500.00" id="1i_1" nVehContrib="202" flow="808.00" occupancy="13.11" speed="16.74"
              length="5.00" nVehEntered="202"/>
    <interval begin="3600.00" end="4500.00" id="1i_2" nVehContrib="22" flow="88.00" occupancy="0.63" speed="19.44"
              length="5.00" nVehEntered="22"/>
    <interval begin="3600.00" end="4500.00" id="2i_1" nVehContrib="205" flow="820.00" occupancy="5.96" speed="19.15"
              length="5.00" nVehEntered="205"/>
    <interval begin="3600.00" end="4500.00" id="2i_2" nVehContrib="20" flow="80.00" occupancy="0.57" speed="19.44"
              length="5.00" nVehEntered="20"/>
    <interval begin="3600.00" end="4500.00" id="3i_1" nVehContrib="0" flow="0.00" occupancy="0.00" speed="-1.00"
              length="-1.00" nVehEntered="0"/>
    <interval begin="3600.00" end="4500.00" id="3i_2" nVehContrib="0" flow="0.00" occupancy="0.00" speed="-1.00"
              length="-1.00" nVehEntered="0"/>
    <interval begin="3600.00" end="4500.00" id="4i_1" nVehContrib="0" flow="0.00" occupancy="0.00" speed="-1.00"
              length="-1.00" nVehEntered="0"/>
    <interval begin="3600.00" end="4500.00" id="4i_2" nVehContrib="0" flow="0.00" occupancy="0.00" speed="-1.00"
              length="-1.00" nVehEntered="0"/>
    <interval begin="4500.00" end="4946.00" id="1i_1" nVehContrib="71" flow="573.09" occupancy="10.47" speed="16.43"
              length="5.00" nVehEntered="71"/>
    <interval begin="4500.00" end="4946.00" id="1i_2" nVehContrib="12" flow="96.86" occupancy="0.69" speed="19.44"
              length="5.00" nVehEntered="12"/>
    <interval begin="4500.00" end="4946.00" id="2i_1" nVehContrib="31" flow="250.22" occupancy="1.80" speed="19.12"
              length="5.00" nVehEntered="31"/>
    <interval begin="4500.00" end="4946.00" id="2i_2" nVehContrib="2" flow="16.14" occupancy="0.12" speed="19.44"
              length="5.00" nVehEntered="2"/>
    <interval begin="4500.00" end="4946.00" id="3i_1" nVehContrib="0" flow="0.00" occupancy="0.00" speed="-1.00"
              length="-1.00" nVehEntered="0"/>
    <interval begin="4500.00" end="4946.00" id="3i_2" nVehContrib="0" flow="0.00" occupancy="0.00" speed="-1.00"
              length="-1.00" nVehEntered="0"/>
    <interval begin="4500.00" end="4946.00" id="4i_1" nVehContrib="0" flow="0.00" occupancy="0.00" speed="-1.00"
              length="-1.00" nVehEntered="0"/>
    <interval begin="4500.00" end="4946.00" id="4i_2" nVehContrib="0" flow="0.00" occupancy="0.00" speed="-1.00"
              length="-1.00" nVehEntered="0"/>
</detector>
