<?xml version="1.0" encoding="UTF-8"?>

<!-- generated on Wed 24 Apr 2019 12:57:58 AM PDT by SUMO gui Version 0.25.0
<?xml version="1.0" encoding="UTF-8"?>

<configuration xmlns:xsi="http://www.w3.org/2001/XMLSchema-instance" xsi:noNamespaceSchemaLocation="http://sumo.dlr.de/xsd/sumo-gui.exeConfiguration.xsd">

    <input>
        <net-file value="va_data/cross.net.xml"/>
        <route-files value="va_data/cross.rou.xml"/>
        <additional-files value="va_data/cross.add.xml"/>
    </input>

    <output>
        <summary-output value="OUTPUT/tripinfo_va.xml"/>
        <save-state.prefix value="va_data/state"/>
    </output>

    <time>
        <begin value="0"/>
        <end value="50"/>
    </time>

    <emissions>
        <phemlight-path value="va_data/./PHEMlight/"/>
    </emissions>

    <traci_server>
        <remote-port value="8873"/>
    </traci_server>

</configuration>
-->

<detector xmlns:xsi="http://www.w3.org/2001/XMLSchema-instance"
          xsi:noNamespaceSchemaLocation="http://sumo.dlr.de/xsd/det_e1_file.xsd">
    <interval begin="0.00" end="900.00" id="1i_1" nVehContrib="68" flow="272.00" occupancy="1.97" speed="19.22"
              length="5.00" nVehEntered="68"/>
    <interval begin="0.00" end="900.00" id="1i_2" nVehContrib="35" flow="140.00" occupancy="1.01" speed="19.25"
              length="5.00" nVehEntered="35"/>
    <interval begin="0.00" end="900.00" id="2i_1" nVehContrib="112" flow="448.00" occupancy="12.18" speed="15.85"
              length="5.00" nVehEntered="112"/>
    <interval begin="0.00" end="900.00" id="2i_2" nVehContrib="30" flow="120.00" occupancy="0.87" speed="19.23"
              length="5.00" nVehEntered="30"/>
    <interval begin="0.00" end="900.00" id="3i_1" nVehContrib="67" flow="268.00" occupancy="1.97" speed="18.95"
              length="5.00" nVehEntered="67"/>
    <interval begin="0.00" end="900.00" id="3i_2" nVehContrib="66" flow="264.00" occupancy="1.93" speed="19.06"
              length="5.00" nVehEntered="66"/>
    <interval begin="0.00" end="900.00" id="4i_1" nVehContrib="69" flow="276.00" occupancy="2.07" speed="18.73"
              length="5.00" nVehEntered="69"/>
    <interval begin="0.00" end="900.00" id="4i_2" nVehContrib="24" flow="96.00" occupancy="0.69" speed="19.27"
              length="5.00" nVehEntered="24"/>
    <interval begin="900.00" end="1800.00" id="1i_1" nVehContrib="102" flow="408.00" occupancy="7.68" speed="17.06"
              length="5.00" nVehEntered="102"/>
    <interval begin="900.00" end="1800.00" id="1i_2" nVehContrib="30" flow="120.00" occupancy="0.87" speed="19.24"
              length="5.00" nVehEntered="30"/>
    <interval begin="900.00" end="1800.00" id="2i_1" nVehContrib="122" flow="488.00" occupancy="8.24" speed="17.26"
              length="5.00" nVehEntered="122"/>
    <interval begin="900.00" end="1800.00" id="2i_2" nVehContrib="40" flow="160.00" occupancy="1.15" speed="19.26"
              length="5.00" nVehEntered="40"/>
    <interval begin="900.00" end="1800.00" id="3i_1" nVehContrib="83" flow="332.00" occupancy="2.42" speed="19.10"
              length="5.00" nVehEntered="83"/>
    <interval begin="900.00" end="1800.00" id="3i_2" nVehContrib="52" flow="208.00" occupancy="1.50" speed="19.21"
              length="5.00" nVehEntered="52"/>
    <interval begin="900.00" end="1800.00" id="4i_1" nVehContrib="71" flow="284.00" occupancy="2.99" speed="17.87"
              length="5.00" nVehEntered="71"/>
    <interval begin="900.00" end="1800.00" id="4i_2" nVehContrib="30" flow="120.00" occupancy="0.87" speed="19.23"
              length="5.00" nVehEntered="30"/>
    <interval begin="1800.00" end="2700.00" id="1i_1" nVehContrib="83" flow="332.00" occupancy="2.41" speed="19.14"
              length="5.00" nVehEntered="83"/>
    <interval begin="1800.00" end="2700.00" id="1i_2" nVehContrib="27" flow="108.00" occupancy="0.78" speed="19.24"
              length="5.00" nVehEntered="27"/>
    <interval begin="1800.00" end="2700.00" id="2i_1" nVehContrib="116" flow="464.00" occupancy="5.60" speed="17.65"
              length="5.00" nVehEntered="116"/>
    <interval begin="1800.00" end="2700.00" id="2i_2" nVehContrib="37" flow="148.00" occupancy="1.07" speed="19.23"
              length="5.00" nVehEntered="37"/>
    <interval begin="1800.00" end="2700.00" id="3i_1" nVehContrib="73" flow="292.00" occupancy="2.11" speed="19.19"
              length="5.00" nVehEntered="73"/>
    <interval begin="1800.00" end="2700.00" id="3i_2" nVehContrib="60" flow="240.00" occupancy="1.73" speed="19.24"
              length="5.00" nVehEntered="60"/>
    <interval begin="1800.00" end="2700.00" id="4i_1" nVehContrib="74" flow="296.00" occupancy="3.95" speed="18.07"
              length="5.00" nVehEntered="74"/>
    <interval begin="1800.00" end="2700.00" id="4i_2" nVehContrib="22" flow="88.00" occupancy="0.64" speed="19.22"
              length="5.00" nVehEntered="22"/>
    <interval begin="2700.00" end="3600.00" id="1i_1" nVehContrib="46" flow="184.00" occupancy="1.42" speed="18.27"
              length="5.00" nVehEntered="46"/>
    <interval begin="2700.00" end="3600.00" id="1i_2" nVehContrib="26" flow="104.00" occupancy="0.75" speed="19.19"
              length="5.00" nVehEntered="26"/>
    <interval begin="2700.00" end="3600.00" id="2i_1" nVehContrib="116" flow="464.00" occupancy="8.22" speed="17.24"
              length="5.00" nVehEntered="116"/>
    <interval begin="2700.00" end="3600.00" id="2i_2" nVehContrib="41" flow="164.00" occupancy="1.19" speed="19.12"
              length="5.00" nVehEntered="41"/>
    <interval begin="2700.00" end="3600.00" id="3i_1" nVehContrib="64" flow="256.00" occupancy="1.98" speed="18.27"
              length="5.00" nVehEntered="64"/>
    <interval begin="2700.00" end="3600.00" id="3i_2" nVehContrib="66" flow="264.00" occupancy="2.27" speed="18.27"
              length="5.00" nVehEntered="66"/>
    <interval begin="2700.00" end="3600.00" id="4i_1" nVehContrib="44" flow="176.00" occupancy="5.71" speed="16.44"
              length="5.00" nVehEntered="44"/>
    <interval begin="2700.00" end="3600.00" id="4i_2" nVehContrib="24" flow="96.00" occupancy="0.70" speed="19.14"
              length="5.00" nVehEntered="24"/>
    <interval begin="3600.00" end="4231.00" id="1i_1" nVehContrib="0" flow="0.00" occupancy="0.00" speed="-1.00"
              length="-1.00" nVehEntered="0"/>
    <interval begin="3600.00" end="4231.00" id="1i_2" nVehContrib="0" flow="0.00" occupancy="0.00" speed="-1.00"
              length="-1.00" nVehEntered="0"/>
    <interval begin="3600.00" end="4231.00" id="2i_1" nVehContrib="80" flow="456.42" occupancy="3.29" speed="19.26"
              length="5.00" nVehEntered="80"/>
    <interval begin="3600.00" end="4231.00" id="2i_2" nVehContrib="17" flow="96.99" occupancy="0.70" speed="19.25"
              length="5.00" nVehEntered="17"/>
    <interval begin="3600.00" end="4231.00" id="3i_1" nVehContrib="12" flow="68.46" occupancy="0.49" speed="19.27"
              length="5.00" nVehEntered="12"/>
    <interval begin="3600.00" end="4231.00" id="3i_2" nVehContrib="9" flow="51.35" occupancy="0.37" speed="19.21"
              length="5.00" nVehEntered="9"/>
    <interval begin="3600.00" end="4231.00" id="4i_1" nVehContrib="0" flow="0.00" occupancy="0.00" speed="-1.00"
              length="-1.00" nVehEntered="0"/>
    <interval begin="3600.00" end="4231.00" id="4i_2" nVehContrib="0" flow="0.00" occupancy="0.00" speed="-1.00"
              length="-1.00" nVehEntered="0"/>
</detector>
