<?xml version="1.0" encoding="UTF-8"?>

<!-- generated on Fri 05 Apr 2019 01:45:21 PM PDT by SUMO gui Version 0.25.0
<?xml version="1.0" encoding="UTF-8"?>

<configuration xmlns:xsi="http://www.w3.org/2001/XMLSchema-instance" xsi:noNamespaceSchemaLocation="http://sumo.dlr.de/xsd/sumo-gui.exeConfiguration.xsd">

    <input>
        <net-file value="va_data/cross.net.xml"/>
        <route-files value="va_data/cross.rou.xml"/>
        <additional-files value="va_data/cross.add.xml"/>
    </input>

    <output>
        <summary-output value="tripinfo_va.xml"/>
        <save-state.prefix value="va_data/state"/>
    </output>

    <time>
        <begin value="0"/>
        <end value="50"/>
    </time>

    <emissions>
        <phemlight-path value="va_data/./PHEMlight/"/>
    </emissions>

    <traci_server>
        <remote-port value="8873"/>
    </traci_server>

</configuration>
-->

<summary xmlns:xsi="http://www.w3.org/2001/XMLSchema-instance"
         xsi:noNamespaceSchemaLocation="http://sumo.dlr.de/xsd/summary_file.xsd">
    <step time="0.00" loaded="2" inserted="1" running="1" waiting="0" ended="0" meanWaitingTime="0.00"
          meanTravelTime="-1.00" duration="1185"/>
    <step time="1.00" loaded="176" inserted="2" running="2" waiting="1" ended="0" meanWaitingTime="0.00"
          meanTravelTime="-1.00" duration="0"/>
    <step time="2.00" loaded="176" inserted="2" running="2" waiting="2" ended="0" meanWaitingTime="0.00"
          meanTravelTime="-1.00" duration="9"/>
    <step time="3.00" loaded="176" inserted="2" running="2" waiting="3" ended="0" meanWaitingTime="0.00"
          meanTravelTime="-1.00" duration="0"/>
    <step time="4.00" loaded="176" inserted="3" running="3" waiting="2" ended="0" meanWaitingTime="1.00"
          meanTravelTime="-1.00" duration="0"/>
    <step time="5.00" loaded="176" inserted="4" running="4" waiting="2" ended="0" meanWaitingTime="1.50"
          meanTravelTime="-1.00" duration="0"/>
    <step time="6.00" loaded="176" inserted="4" running="4" waiting="4" ended="0" meanWaitingTime="1.50"
          meanTravelTime="-1.00" duration="0"/>
    <step time="7.00" loaded="176" inserted="4" running="4" waiting="5" ended="0" meanWaitingTime="1.50"
          meanTravelTime="-1.00" duration="0"/>
    <step time="8.00" loaded="176" inserted="5" running="5" waiting="4" ended="0" meanWaitingTime="2.20"
          meanTravelTime="-1.00" duration="0"/>
    <step time="9.00" loaded="176" inserted="6" running="6" waiting="5" ended="0" meanWaitingTime="2.33"
          meanTravelTime="-1.00" duration="0"/>
    <step time="10.00" loaded="176" inserted="6" running="6" waiting="5" ended="0" meanWaitingTime="2.33"
          meanTravelTime="-1.00" duration="0"/>
    <step time="11.00" loaded="176" inserted="6" running="6" waiting="6" ended="0" meanWaitingTime="2.33"
          meanTravelTime="-1.00" duration="0"/>
    <step time="12.00" loaded="176" inserted="7" running="7" waiting="6" ended="0" meanWaitingTime="3.00"
          meanTravelTime="-1.00" duration="0"/>
    <step time="13.00" loaded="176" inserted="8" running="8" waiting="5" ended="0" meanWaitingTime="3.12"
          meanTravelTime="-1.00" duration="0"/>
    <step time="14.00" loaded="176" inserted="8" running="8" waiting="6" ended="0" meanWaitingTime="3.12"
          meanTravelTime="-1.00" duration="0"/>
    <step time="15.00" loaded="176" inserted="8" running="8" waiting="8" ended="0" meanWaitingTime="3.12"
          meanTravelTime="-1.00" duration="0"/>
    <step time="16.00" loaded="176" inserted="9" running="9" waiting="8" ended="0" meanWaitingTime="3.89"
          meanTravelTime="-1.00" duration="1"/>
    <step time="17.00" loaded="176" inserted="10" running="10" waiting="7" ended="0" meanWaitingTime="4.00"
          meanTravelTime="-1.00" duration="0"/>
    <step time="18.00" loaded="176" inserted="10" running="10" waiting="7" ended="0" meanWaitingTime="4.00"
          meanTravelTime="-1.00" duration="0"/>
    <step time="19.00" loaded="176" inserted="10" running="10" waiting="9" ended="0" meanWaitingTime="4.00"
          meanTravelTime="-1.00" duration="0"/>
    <step time="20.00" loaded="176" inserted="11" running="11" waiting="9" ended="0" meanWaitingTime="4.82"
          meanTravelTime="-1.00" duration="0"/>
    <step time="21.00" loaded="176" inserted="12" running="12" waiting="8" ended="0" meanWaitingTime="5.00"
          meanTravelTime="-1.00" duration="0"/>
    <step time="22.00" loaded="176" inserted="12" running="12" waiting="9" ended="0" meanWaitingTime="5.00"
          meanTravelTime="-1.00" duration="0"/>
    <step time="23.00" loaded="176" inserted="12" running="12" waiting="9" ended="0" meanWaitingTime="5.00"
          meanTravelTime="-1.00" duration="0"/>
    <step time="24.00" loaded="176" inserted="13" running="13" waiting="8" ended="0" meanWaitingTime="5.77"
          meanTravelTime="-1.00" duration="0"/>
    <step time="25.00" loaded="176" inserted="14" running="14" waiting="8" ended="0" meanWaitingTime="6.07"
          meanTravelTime="-1.00" duration="0"/>
    <step time="26.00" loaded="176" inserted="14" running="14" waiting="9" ended="0" meanWaitingTime="6.07"
          meanTravelTime="-1.00" duration="0"/>
    <step time="27.00" loaded="176" inserted="14" running="14" waiting="11" ended="0" meanWaitingTime="6.07"
          meanTravelTime="-1.00" duration="0"/>
    <step time="28.00" loaded="176" inserted="15" running="15" waiting="11" ended="0" meanWaitingTime="6.80"
          meanTravelTime="-1.00" duration="0"/>
    <step time="29.00" loaded="176" inserted="16" running="16" waiting="11" ended="0" meanWaitingTime="6.94"
          meanTravelTime="-1.00" duration="0"/>
    <step time="30.00" loaded="176" inserted="17" running="17" waiting="12" ended="0" meanWaitingTime="6.53"
          meanTravelTime="-1.00" duration="1"/>
    <step time="31.00" loaded="176" inserted="17" running="17" waiting="13" ended="0" meanWaitingTime="6.53"
          meanTravelTime="-1.00" duration="0"/>
    <step time="32.00" loaded="176" inserted="18" running="18" waiting="13" ended="0" meanWaitingTime="7.11"
          meanTravelTime="-1.00" duration="0"/>
    <step time="33.00" loaded="176" inserted="19" running="19" waiting="13" ended="0" meanWaitingTime="7.32"
          meanTravelTime="-1.00" duration="0"/>
    <step time="34.00" loaded="176" inserted="20" running="20" waiting="12" ended="0" meanWaitingTime="7.10"
          meanTravelTime="-1.00" duration="0"/>
    <step time="35.00" loaded="176" inserted="20" running="20" waiting="13" ended="0" meanWaitingTime="7.10"
          meanTravelTime="-1.00" duration="0"/>
    <step time="36.00" loaded="176" inserted="21" running="21" waiting="12" ended="0" meanWaitingTime="7.71"
          meanTravelTime="-1.00" duration="0"/>
    <step time="37.00" loaded="176" inserted="22" running="22" waiting="13" ended="0" meanWaitingTime="7.86"
          meanTravelTime="-1.00" duration="0"/>
    <step time="38.00" loaded="176" inserted="22" running="22" waiting="13" ended="0" meanWaitingTime="7.86"
          meanTravelTime="-1.00" duration="0"/>
    <step time="39.00" loaded="176" inserted="22" running="22" waiting="14" ended="0" meanWaitingTime="7.86"
          meanTravelTime="-1.00" duration="1"/>
    <step time="40.00" loaded="176" inserted="23" running="23" waiting="14" ended="0" meanWaitingTime="8.43"
          meanTravelTime="-1.00" duration="0"/>
    <step time="41.00" loaded="176" inserted="24" running="24" waiting="14" ended="0" meanWaitingTime="8.67"
          meanTravelTime="-1.00" duration="0"/>
    <step time="42.00" loaded="176" inserted="24" running="24" waiting="14" ended="0" meanWaitingTime="8.67"
          meanTravelTime="-1.00" duration="0"/>
    <step time="43.00" loaded="176" inserted="25" running="25" waiting="14" ended="0" meanWaitingTime="8.32"
          meanTravelTime="-1.00" duration="0"/>
    <step time="44.00" loaded="176" inserted="26" running="26" waiting="15" ended="0" meanWaitingTime="8.96"
          meanTravelTime="-1.00" duration="0"/>
    <step time="45.00" loaded="176" inserted="27" running="27" waiting="15" ended="0" meanWaitingTime="9.30"
          meanTravelTime="-1.00" duration="0"/>
    <step time="46.00" loaded="176" inserted="27" running="27" waiting="18" ended="0" meanWaitingTime="9.30"
          meanTravelTime="-1.00" duration="0"/>
    <step time="47.00" loaded="176" inserted="28" running="28" waiting="18" ended="0" meanWaitingTime="9.04"
          meanTravelTime="-1.00" duration="0"/>
    <step time="48.00" loaded="176" inserted="29" running="29" waiting="18" ended="0" meanWaitingTime="9.52"
          meanTravelTime="-1.00" duration="0"/>
    <step time="49.00" loaded="176" inserted="30" running="30" waiting="18" ended="0" meanWaitingTime="9.87"
          meanTravelTime="-1.00" duration="0"/>
    <step time="50.00" loaded="176" inserted="30" running="30" waiting="18" ended="0" meanWaitingTime="9.87"
          meanTravelTime="-1.00" duration="0"/>
    <step time="51.00" loaded="176" inserted="31" running="31" waiting="19" ended="0" meanWaitingTime="9.71"
          meanTravelTime="-1.00" duration="1"/>
    <step time="52.00" loaded="176" inserted="32" running="32" waiting="19" ended="0" meanWaitingTime="10.16"
          meanTravelTime="-1.00" duration="0"/>
    <step time="53.00" loaded="176" inserted="33" running="33" waiting="18" ended="0" meanWaitingTime="10.45"
          meanTravelTime="-1.00" duration="0"/>
    <step time="54.00" loaded="176" inserted="33" running="33" waiting="21" ended="0" meanWaitingTime="10.45"
          meanTravelTime="-1.00" duration="0"/>
    <step time="55.00" loaded="176" inserted="34" running="34" waiting="22" ended="0" meanWaitingTime="10.18"
          meanTravelTime="-1.00" duration="0"/>
    <step time="56.00" loaded="176" inserted="35" running="35" waiting="21" ended="0" meanWaitingTime="10.63"
          meanTravelTime="-1.00" duration="0"/>
    <step time="57.00" loaded="176" inserted="36" running="36" waiting="21" ended="0" meanWaitingTime="10.89"
          meanTravelTime="-1.00" duration="0"/>
    <step time="58.00" loaded="176" inserted="36" running="36" waiting="21" ended="0" meanWaitingTime="10.89"
          meanTravelTime="-1.00" duration="0"/>
    <step time="59.00" loaded="176" inserted="36" running="36" waiting="21" ended="0" meanWaitingTime="10.89"
          meanTravelTime="-1.00" duration="0"/>
    <step time="60.00" loaded="176" inserted="37" running="37" waiting="20" ended="0" meanWaitingTime="11.35"
          meanTravelTime="-1.00" duration="0"/>
    <step time="61.00" loaded="176" inserted="38" running="38" waiting="19" ended="0" meanWaitingTime="11.68"
          meanTravelTime="-1.00" duration="0"/>
    <step time="62.00" loaded="176" inserted="38" running="38" waiting="19" ended="0" meanWaitingTime="11.68"
          meanTravelTime="-1.00" duration="0"/>
    <step time="63.00" loaded="176" inserted="38" running="38" waiting="19" ended="0" meanWaitingTime="11.68"
          meanTravelTime="-1.00" duration="1"/>
    <step time="64.00" loaded="176" inserted="39" running="39" waiting="20" ended="0" meanWaitingTime="12.13"
          meanTravelTime="-1.00" duration="0"/>
    <step time="65.00" loaded="176" inserted="40" running="40" waiting="20" ended="0" meanWaitingTime="12.43"
          meanTravelTime="-1.00" duration="0"/>
    <step time="66.00" loaded="176" inserted="40" running="40" waiting="22" ended="0" meanWaitingTime="12.43"
          meanTravelTime="-1.00" duration="0"/>
    <step time="67.00" loaded="176" inserted="40" running="40" waiting="22" ended="0" meanWaitingTime="12.43"
          meanTravelTime="-1.00" duration="1"/>
    <step time="68.00" loaded="176" inserted="41" running="41" waiting="21" ended="0" meanWaitingTime="12.83"
          meanTravelTime="-1.00" duration="0"/>
    <step time="69.00" loaded="176" inserted="43" running="43" waiting="20" ended="0" meanWaitingTime="12.81"
          meanTravelTime="-1.00" duration="0"/>
    <step time="70.00" loaded="176" inserted="43" running="43" waiting="20" ended="0" meanWaitingTime="12.81"
          meanTravelTime="-1.00" duration="0"/>
    <step time="71.00" loaded="176" inserted="43" running="43" waiting="20" ended="0" meanWaitingTime="12.81"
          meanTravelTime="-1.00" duration="0"/>
    <step time="72.00" loaded="176" inserted="44" running="44" waiting="20" ended="0" meanWaitingTime="13.25"
          meanTravelTime="-1.00" duration="0"/>
    <step time="73.00" loaded="176" inserted="45" running="45" waiting="20" ended="0" meanWaitingTime="13.56"
          meanTravelTime="-1.00" duration="0"/>
    <step time="74.00" loaded="176" inserted="45" running="45" waiting="20" ended="0" meanWaitingTime="13.56"
          meanTravelTime="-1.00" duration="1"/>
    <step time="75.00" loaded="176" inserted="45" running="45" waiting="20" ended="0" meanWaitingTime="13.56"
          meanTravelTime="-1.00" duration="0"/>
    <step time="76.00" loaded="176" inserted="46" running="46" waiting="20" ended="0" meanWaitingTime="13.96"
          meanTravelTime="-1.00" duration="0"/>
    <step time="77.00" loaded="176" inserted="47" running="47" waiting="20" ended="0" meanWaitingTime="14.28"
          meanTravelTime="-1.00" duration="0"/>
    <step time="78.00" loaded="176" inserted="47" running="47" waiting="22" ended="0" meanWaitingTime="14.28"
          meanTravelTime="-1.00" duration="1"/>
    <step time="79.00" loaded="176" inserted="47" running="47" waiting="22" ended="0" meanWaitingTime="14.28"
          meanTravelTime="-1.00" duration="0"/>
    <step time="80.00" loaded="176" inserted="48" running="48" waiting="22" ended="0" meanWaitingTime="14.69"
          meanTravelTime="-1.00" duration="0"/>
    <step time="81.00" loaded="176" inserted="50" running="50" waiting="21" ended="0" meanWaitingTime="14.74"
          meanTravelTime="-1.00" duration="1"/>
    <step time="82.00" loaded="176" inserted="50" running="50" waiting="22" ended="0" meanWaitingTime="14.74"
          meanTravelTime="-1.00" duration="0"/>
    <step time="83.00" loaded="176" inserted="50" running="50" waiting="22" ended="0" meanWaitingTime="14.74"
          meanTravelTime="-1.00" duration="0"/>
    <step time="84.00" loaded="176" inserted="51" running="50" waiting="21" ended="1" meanWaitingTime="15.18"
          meanTravelTime="84.00" duration="1"/>
    <step time="85.00" loaded="176" inserted="52" running="51" waiting="20" ended="1" meanWaitingTime="15.54"
          meanTravelTime="84.00" duration="0"/>
    <step time="86.00" loaded="176" inserted="52" running="51" waiting="20" ended="1" meanWaitingTime="15.54"
          meanTravelTime="84.00" duration="1"/>
    <step time="87.00" loaded="176" inserted="52" running="51" waiting="20" ended="1" meanWaitingTime="15.54"
          meanTravelTime="84.00" duration="0"/>
    <step time="88.00" loaded="176" inserted="54" running="52" waiting="20" ended="2" meanWaitingTime="15.59"
          meanTravelTime="84.00" duration="1"/>
    <step time="89.00" loaded="176" inserted="55" running="53" waiting="19" ended="2" meanWaitingTime="16.00"
          meanTravelTime="84.00" duration="0"/>
    <step time="90.00" loaded="176" inserted="55" running="53" waiting="19" ended="2" meanWaitingTime="16.00"
          meanTravelTime="84.00" duration="0"/>
    <step time="91.00" loaded="176" inserted="55" running="53" waiting="19" ended="2" meanWaitingTime="16.00"
          meanTravelTime="84.00" duration="0"/>
    <step time="92.00" loaded="176" inserted="56" running="53" waiting="19" ended="3" meanWaitingTime="16.38"
          meanTravelTime="84.00" duration="0"/>
    <step time="93.00" loaded="176" inserted="58" running="55" waiting="18" ended="3" meanWaitingTime="16.52"
          meanTravelTime="84.00" duration="1"/>
    <step time="94.00" loaded="176" inserted="58" running="55" waiting="19" ended="3" meanWaitingTime="16.52"
          meanTravelTime="84.00" duration="0"/>
    <step time="95.00" loaded="176" inserted="58" running="55" waiting="21" ended="3" meanWaitingTime="16.52"
          meanTravelTime="84.00" duration="0"/>
    <step time="96.00" loaded="176" inserted="59" running="55" waiting="21" ended="4" meanWaitingTime="16.78"
          meanTravelTime="84.00" duration="0"/>
    <step time="97.00" loaded="176" inserted="60" running="56" waiting="20" ended="4" meanWaitingTime="17.22"
          meanTravelTime="84.00" duration="0"/>
    <step time="98.00" loaded="176" inserted="60" running="56" waiting="20" ended="4" meanWaitingTime="17.22"
          meanTravelTime="84.00" duration="0"/>
    <step time="99.00" loaded="176" inserted="61" running="57" waiting="20" ended="4" meanWaitingTime="16.93"
          meanTravelTime="84.00" duration="0"/>
    <step time="100.00" loaded="176" inserted="62" running="57" waiting="21" ended="5" meanWaitingTime="17.23"
          meanTravelTime="84.00" duration="1"/>
    <step time="101.00" loaded="176" inserted="63" running="58" waiting="20" ended="5" meanWaitingTime="17.68"
          meanTravelTime="84.00" duration="0"/>
    <step time="102.00" loaded="176" inserted="63" running="58" waiting="21" ended="5" meanWaitingTime="17.68"
          meanTravelTime="84.00" duration="0"/>
    <step time="103.00" loaded="176" inserted="63" running="58" waiting="22" ended="5" meanWaitingTime="17.68"
          meanTravelTime="84.00" duration="1"/>
    <step time="104.00" loaded="176" inserted="64" running="58" waiting="22" ended="6" meanWaitingTime="18.00"
          meanTravelTime="84.00" duration="0"/>
    <step time="105.00" loaded="176" inserted="65" running="59" waiting="23" ended="6" meanWaitingTime="18.46"
          meanTravelTime="84.00" duration="0"/>
    <step time="106.00" loaded="176" inserted="65" running="59" waiting="23" ended="6" meanWaitingTime="18.46"
          meanTravelTime="84.00" duration="0"/>
    <step time="107.00" loaded="176" inserted="65" running="59" waiting="24" ended="6" meanWaitingTime="18.46"
          meanTravelTime="84.00" duration="0"/>
    <step time="108.00" loaded="176" inserted="66" running="59" waiting="23" ended="7" meanWaitingTime="18.73"
          meanTravelTime="84.00" duration="0"/>
    <step time="109.00" loaded="176" inserted="67" running="60" waiting="22" ended="7" meanWaitingTime="19.12"
          meanTravelTime="84.00" duration="0"/>
    <step time="110.00" loaded="176" inserted="68" running="61" waiting="22" ended="7" meanWaitingTime="18.84"
          meanTravelTime="84.00" duration="0"/>
    <step time="111.00" loaded="176" inserted="68" running="61" waiting="25" ended="7" meanWaitingTime="18.84"
          meanTravelTime="84.00" duration="0"/>
    <step time="112.00" loaded="176" inserted="69" running="61" waiting="24" ended="8" meanWaitingTime="19.09"
          meanTravelTime="84.00" duration="0"/>
    <step time="113.00" loaded="176" inserted="70" running="62" waiting="23" ended="8" meanWaitingTime="19.49"
          meanTravelTime="84.00" duration="0"/>
    <step time="114.00" loaded="176" inserted="71" running="63" waiting="26" ended="8" meanWaitingTime="19.21"
          meanTravelTime="84.00" duration="0"/>
    <step time="115.00" loaded="176" inserted="71" running="63" waiting="27" ended="8" meanWaitingTime="19.21"
          meanTravelTime="84.00" duration="0"/>
    <step time="116.00" loaded="176" inserted="72" running="63" waiting="27" ended="9" meanWaitingTime="19.47"
          meanTravelTime="84.00" duration="0"/>
    <step time="117.00" loaded="176" inserted="73" running="64" waiting="26" ended="9" meanWaitingTime="19.81"
          meanTravelTime="84.00" duration="0"/>
    <step time="118.00" loaded="176" inserted="73" running="64" waiting="27" ended="9" meanWaitingTime="19.81"
          meanTravelTime="84.00" duration="0"/>
    <step time="119.00" loaded="176" inserted="73" running="64" waiting="27" ended="9" meanWaitingTime="19.81"
          meanTravelTime="84.00" duration="0"/>
    <step time="120.00" loaded="176" inserted="74" running="64" waiting="27" ended="10" meanWaitingTime="20.08"
          meanTravelTime="84.00" duration="0"/>
    <step time="121.00" loaded="176" inserted="75" running="65" waiting="27" ended="10" meanWaitingTime="20.40"
          meanTravelTime="84.00" duration="0"/>
    <step time="122.00" loaded="176" inserted="75" running="65" waiting="28" ended="10" meanWaitingTime="20.40"
          meanTravelTime="84.00" duration="1"/>
    <step time="123.00" loaded="176" inserted="75" running="65" waiting="28" ended="10" meanWaitingTime="20.40"
          meanTravelTime="84.00" duration="0"/>
    <step time="124.00" loaded="176" inserted="76" running="66" waiting="27" ended="10" meanWaitingTime="20.68"
          meanTravelTime="84.00" duration="0"/>
    <step time="125.00" loaded="176" inserted="77" running="67" waiting="27" ended="10" meanWaitingTime="21.03"
          meanTravelTime="84.00" duration="1"/>
    <step time="126.00" loaded="176" inserted="77" running="67" waiting="27" ended="10" meanWaitingTime="21.03"
          meanTravelTime="84.00" duration="0"/>
    <step time="127.00" loaded="176" inserted="77" running="67" waiting="27" ended="10" meanWaitingTime="21.03"
          meanTravelTime="84.00" duration="0"/>
    <step time="128.00" loaded="176" inserted="78" running="68" waiting="26" ended="10" meanWaitingTime="21.22"
          meanTravelTime="84.00" duration="0"/>
    <step time="129.00" loaded="176" inserted="79" running="67" waiting="26" ended="12" meanWaitingTime="21.47"
          meanTravelTime="90.33" duration="1"/>
    <step time="130.00" loaded="176" inserted="79" running="67" waiting="26" ended="12" meanWaitingTime="21.47"
          meanTravelTime="90.33" duration="1"/>
    <step time="131.00" loaded="176" inserted="79" running="65" waiting="26" ended="14" meanWaitingTime="21.47"
          meanTravelTime="92.57" duration="0"/>
    <step time="132.00" loaded="176" inserted="80" running="66" waiting="25" ended="14" meanWaitingTime="21.68"
          meanTravelTime="92.57" duration="0"/>
    <step time="133.00" loaded="176" inserted="81" running="66" waiting="24" ended="15" meanWaitingTime="21.88"
          meanTravelTime="94.67" duration="0"/>
    <step time="134.00" loaded="176" inserted="81" running="65" waiting="24" ended="16" meanWaitingTime="21.88"
          meanTravelTime="96.06" duration="0"/>
    <step time="135.00" loaded="176" inserted="81" running="65" waiting="26" ended="16" meanWaitingTime="21.88"
          meanTravelTime="96.06" duration="1"/>
    <step time="136.00" loaded="176" inserted="82" running="65" waiting="26" ended="17" meanWaitingTime="22.11"
          meanTravelTime="97.18" duration="0"/>
    <step time="137.00" loaded="176" inserted="83" running="66" waiting="26" ended="17" meanWaitingTime="22.29"
          meanTravelTime="97.18" duration="0"/>
    <step time="138.00" loaded="176" inserted="83" running="64" waiting="26" ended="19" meanWaitingTime="22.29"
          meanTravelTime="97.37" duration="1"/>
    <step time="139.00" loaded="176" inserted="83" running="63" waiting="28" ended="20" meanWaitingTime="22.29"
          meanTravelTime="98.00" duration="0"/>
    <step time="140.00" loaded="176" inserted="84" running="64" waiting="27" ended="20" meanWaitingTime="22.55"
          meanTravelTime="98.00" duration="0"/>
    <step time="141.00" loaded="176" inserted="85" running="64" waiting="27" ended="21" meanWaitingTime="22.73"
          meanTravelTime="98.48" duration="0"/>
    <step time="142.00" loaded="176" inserted="85" running="64" waiting="28" ended="21" meanWaitingTime="22.73"
          meanTravelTime="98.48" duration="1"/>
    <step time="143.00" loaded="176" inserted="86" running="64" waiting="30" ended="22" meanWaitingTime="22.47"
          meanTravelTime="98.82" duration="0"/>
    <step time="144.00" loaded="176" inserted="87" running="64" waiting="30" ended="23" meanWaitingTime="22.71"
          meanTravelTime="99.00" duration="0"/>
    <step time="145.00" loaded="176" inserted="88" running="64" waiting="30" ended="24" meanWaitingTime="22.92"
          meanTravelTime="98.88" duration="0"/>
    <step time="146.00" loaded="176" inserted="88" running="63" waiting="32" ended="25" meanWaitingTime="22.92"
          meanTravelTime="98.32" duration="0"/>
    <step time="147.00" loaded="176" inserted="88" running="62" waiting="33" ended="26" meanWaitingTime="22.92"
          meanTravelTime="98.00" duration="0"/>
    <step time="148.00" loaded="176" inserted="89" running="63" waiting="33" ended="26" meanWaitingTime="23.18"
          meanTravelTime="98.00" duration="0"/>
    <step time="149.00" loaded="176" inserted="90" running="63" waiting="32" ended="27" meanWaitingTime="23.41"
          meanTravelTime="97.48" duration="0"/>
    <step time="150.00" loaded="176" inserted="90" running="63" waiting="33" ended="27" meanWaitingTime="23.41"
          meanTravelTime="97.48" duration="0"/>
    <step time="151.00" loaded="176" inserted="91" running="64" waiting="35" ended="27" meanWaitingTime="23.15"
          meanTravelTime="97.48" duration="1"/>
    <step time="152.00" loaded="176" inserted="92" running="65" waiting="35" ended="27" meanWaitingTime="23.41"
          meanTravelTime="97.48" duration="0"/>
    <step time="153.00" loaded="176" inserted="93" running="65" waiting="35" ended="28" meanWaitingTime="23.66"
          meanTravelTime="97.00" duration="0"/>
    <step time="154.00" loaded="176" inserted="93" running="65" waiting="35" ended="28" meanWaitingTime="23.66"
          meanTravelTime="97.00" duration="1"/>
    <step time="155.00" loaded="176" inserted="93" running="65" waiting="37" ended="28" meanWaitingTime="23.66"
          meanTravelTime="97.00" duration="0"/>
    <step time="156.00" loaded="176" inserted="94" running="66" waiting="37" ended="28" meanWaitingTime="23.88"
          meanTravelTime="97.00" duration="0"/>
    <step time="157.00" loaded="176" inserted="95" running="66" waiting="36" ended="29" meanWaitingTime="24.12"
          meanTravelTime="96.55" duration="0"/>
    <step time="158.00" loaded="176" inserted="95" running="66" waiting="37" ended="29" meanWaitingTime="24.12"
          meanTravelTime="96.55" duration="0"/>
    <step time="159.00" loaded="176" inserted="95" running="66" waiting="39" ended="29" meanWaitingTime="24.12"
          meanTravelTime="96.55" duration="0"/>
    <step time="160.00" loaded="176" inserted="96" running="67" waiting="39" ended="29" meanWaitingTime="24.34"
          meanTravelTime="96.55" duration="0"/>
    <step time="161.00" loaded="176" inserted="97" running="67" waiting="39" ended="30" meanWaitingTime="24.61"
          meanTravelTime="96.13" duration="1"/>
    <step time="162.00" loaded="176" inserted="97" running="67" waiting="40" ended="30" meanWaitingTime="24.61"
          meanTravelTime="96.13" duration="0"/>
    <step time="163.00" loaded="176" inserted="98" running="68" waiting="41" ended="30" meanWaitingTime="24.36"
          meanTravelTime="96.13" duration="0"/>
    <step time="164.00" loaded="176" inserted="99" running="69" waiting="42" ended="30" meanWaitingTime="24.61"
          meanTravelTime="96.13" duration="1"/>
    <step time="165.00" loaded="176" inserted="100" running="69" waiting="42" ended="31" meanWaitingTime="24.87"
          meanTravelTime="95.74" duration="0"/>
    <step time="166.00" loaded="176" inserted="100" running="69" waiting="43" ended="31" meanWaitingTime="24.87"
          meanTravelTime="95.74" duration="0"/>
    <step time="167.00" loaded="176" inserted="101" running="70" waiting="42" ended="31" meanWaitingTime="24.65"
          meanTravelTime="95.74" duration="1"/>
    <step time="168.00" loaded="176" inserted="103" running="72" waiting="42" ended="31" meanWaitingTime="24.68"
          meanTravelTime="95.74" duration="0"/>
    <step time="169.00" loaded="176" inserted="104" running="73" waiting="42" ended="31" meanWaitingTime="24.97"
          meanTravelTime="95.74" duration="0"/>
    <step time="170.00" loaded="176" inserted="104" running="73" waiting="43" ended="31" meanWaitingTime="24.97"
          meanTravelTime="95.74" duration="0"/>
    <step time="171.00" loaded="176" inserted="105" running="74" waiting="42" ended="31" meanWaitingTime="24.79"
          meanTravelTime="95.74" duration="0"/>
    <step time="172.00" loaded="176" inserted="106" running="75" waiting="41" ended="31" meanWaitingTime="25.04"
          meanTravelTime="95.74" duration="0"/>
    <step time="173.00" loaded="176" inserted="107" running="76" waiting="40" ended="31" meanWaitingTime="25.32"
          meanTravelTime="95.74" duration="0"/>
    <step time="174.00" loaded="176" inserted="107" running="74" waiting="41" ended="33" meanWaitingTime="25.32"
          meanTravelTime="96.45" duration="1"/>
    <step time="175.00" loaded="176" inserted="107" running="74" waiting="41" ended="33" meanWaitingTime="25.32"
          meanTravelTime="96.45" duration="0"/>
    <step time="176.00" loaded="176" inserted="109" running="75" waiting="41" ended="34" meanWaitingTime="25.35"
          meanTravelTime="97.15" duration="0"/>
    <step time="177.00" loaded="176" inserted="110" running="76" waiting="41" ended="34" meanWaitingTime="25.64"
          meanTravelTime="97.15" duration="0"/>
    <step time="178.00" loaded="176" inserted="110" running="76" waiting="41" ended="34" meanWaitingTime="25.64"
          meanTravelTime="97.15" duration="0"/>
    <step time="179.00" loaded="176" inserted="110" running="76" waiting="41" ended="34" meanWaitingTime="25.64"
          meanTravelTime="97.15" duration="0"/>
    <step time="180.00" loaded="176" inserted="111" running="77" waiting="41" ended="34" meanWaitingTime="25.86"
          meanTravelTime="97.15" duration="0"/>
    <step time="181.00" loaded="176" inserted="112" running="78" waiting="41" ended="34" meanWaitingTime="26.13"
          meanTravelTime="97.15" duration="0"/>
    <step time="182.00" loaded="176" inserted="112" running="78" waiting="43" ended="34" meanWaitingTime="26.13"
          meanTravelTime="97.15" duration="0"/>