<?xml version="1.0" encoding="UTF-8"?>

<!-- generated on Tue 26 Mar 2019 02:54:32 PM PDT by SUMO gui Version 0.25.0
<?xml version="1.0" encoding="UTF-8"?>

<configuration xmlns:xsi="http://www.w3.org/2001/XMLSchema-instance" xsi:noNamespaceSchemaLocation="http://sumo.dlr.de/xsd/sumo-gui.exeConfiguration.xsd">

    <input>
        <net-file value="data/cross.net.xml"/>
        <route-files value="data/cross.rou.xml"/>
        <additional-files value="data/cross.add.xml"/>
    </input>

    <output>
        <tripinfo-output value="tripinfo.xml"/>
        <save-state.prefix value="data/state"/>
    </output>

    <time>
        <begin value="0"/>
        <end value="50"/>
    </time>

    <emissions>
        <phemlight-path value="data/./PHEMlight/"/>
    </emissions>

    <traci_server>
        <remote-port value="8873"/>
    </traci_server>

</configuration>
-->

<tripinfos xmlns:xsi="http://www.w3.org/2001/XMLSchema-instance"
           xsi:noNamespaceSchemaLocation="http://sumo.dlr.de/xsd/tripinfo_file.xsd">
    <tripinfo id="left_0" depart="0.00" departLane="52o_0" departPos="5.10" departSpeed="0.00" departDelay="0.00"
              arrival="84.00" arrivalLane="51i_0" arrivalPos="10.00" arrivalSpeed="11.91" duration="84.00"
              routeLength="987.90" waitSteps="0" timeLoss="12.94" rerouteNo="0" devices="tripinfo_left_0"
              vType="SUMO_DEFAULT_TYPE" vaporized=""/>
    <tripinfo id="right_2" depart="1.00" departLane="51o_0" departPos="5.10" departSpeed="0.00" departDelay="0.00"
              arrival="85.00" arrivalLane="52i_0" arrivalPos="10.00" arrivalSpeed="11.91" duration="84.00"
              routeLength="987.90" waitSteps="0" timeLoss="12.94" rerouteNo="0" devices="tripinfo_right_2"
              vType="SUMO_DEFAULT_TYPE" vaporized=""/>
    <tripinfo id="leftRL_1" depart="4.00" departLane="52o_0" departPos="5.10" departSpeed="0.00" departDelay="4.00"
              arrival="88.00" arrivalLane="51i_0" arrivalPos="10.00" arrivalSpeed="11.91" duration="84.00"
              routeLength="987.90" waitSteps="0" timeLoss="12.94" rerouteNo="0" devices="tripinfo_leftRL_1"
              vType="SUMO_DEFAULT_TYPE" vaporized=""/>
    <tripinfo id="rightRL_6" depart="5.00" departLane="51o_0" departPos="5.10" departSpeed="0.00" departDelay="2.00"
              arrival="89.00" arrivalLane="52i_0" arrivalPos="10.00" arrivalSpeed="11.91" duration="84.00"
              routeLength="987.90" waitSteps="0" timeLoss="12.94" rerouteNo="0" devices="tripinfo_rightRL_6"
              vType="SUMO_DEFAULT_TYPE" vaporized=""/>
    <tripinfo id="upLT_3" depart="1.00" departLane="53o_0" departPos="5.10" departSpeed="0.00" departDelay="0.00"
              arrival="111.00" arrivalLane="54i_0" arrivalPos="10.00" arrivalSpeed="11.91" duration="110.00"
              routeLength="987.90" waitSteps="17" timeLoss="38.69" rerouteNo="0" devices="tripinfo_upLT_3"
              vType="SUMO_DEFAULT_TYPE" vaporized=""/>
    <tripinfo id="down_4" depart="2.00" departLane="54o_0" departPos="5.10" departSpeed="0.00" departDelay="0.00"
              arrival="111.00" arrivalLane="53i_0" arrivalPos="10.00" arrivalSpeed="11.91" duration="109.00"
              routeLength="987.90" waitSteps="16" timeLoss="37.69" rerouteNo="0" devices="tripinfo_down_4"
              vType="SUMO_DEFAULT_TYPE" vaporized=""/>
    <tripinfo id="up_5" depart="5.00" departLane="53o_0" departPos="5.10" departSpeed="0.00" departDelay="3.00"
              arrival="113.00" arrivalLane="54i_0" arrivalPos="10.00" arrivalSpeed="10.94" duration="108.00"
              routeLength="987.90" waitSteps="14" timeLoss="36.55" rerouteNo="0" devices="tripinfo_up_5"
              vType="SUMO_DEFAULT_TYPE" vaporized=""/>
    <tripinfo id="downRL_7" depart="7.00" departLane="54o_0" departPos="5.10" departSpeed="0.00" departDelay="0.00"
              arrival="113.00" arrivalLane="53i_0" arrivalPos="10.00" arrivalSpeed="10.94" duration="106.00"
              routeLength="987.90" waitSteps="12" timeLoss="34.55" rerouteNo="0" devices="tripinfo_downRL_7"
              vType="SUMO_DEFAULT_TYPE" vaporized=""/>
    <tripinfo id="upRL_9" depart="10.00" departLane="53o_0" departPos="5.10" departSpeed="0.00" departDelay="0.00"
              arrival="115.00" arrivalLane="54i_0" arrivalPos="10.00" arrivalSpeed="9.94" duration="105.00"
              routeLength="987.90" waitSteps="11" timeLoss="33.55" rerouteNo="0" devices="tripinfo_upRL_9"
              vType="SUMO_DEFAULT_TYPE" vaporized=""/>
    <tripinfo id="down_10" depart="11.00" departLane="54o_0" departPos="5.10" departSpeed="0.00" departDelay="0.00"
              arrival="115.00" arrivalLane="53i_0" arrivalPos="10.00" arrivalSpeed="9.94" duration="104.00"
              routeLength="987.90" waitSteps="10" timeLoss="32.55" rerouteNo="0" devices="tripinfo_down_10"
              vType="SUMO_DEFAULT_TYPE" vaporized=""/>
    <tripinfo id="down_16" depart="19.00" departLane="54o_0" departPos="5.10" departSpeed="0.00" departDelay="0.00"
              arrival="116.00" arrivalLane="53i_1" arrivalPos="10.00" arrivalSpeed="11.74" duration="97.00"
              routeLength="987.90" waitSteps="3" timeLoss="25.87" rerouteNo="0" devices="tripinfo_down_16"
              vType="SUMO_DEFAULT_TYPE" vaporized=""/>
    <tripinfo id="up_13" depart="15.00" departLane="53o_0" departPos="5.10" departSpeed="0.00" departDelay="0.00"
              arrival="116.00" arrivalLane="54i_1" arrivalPos="10.00" arrivalSpeed="11.74" duration="101.00"
              routeLength="987.90" waitSteps="7" timeLoss="29.87" rerouteNo="0" devices="tripinfo_up_13"
              vType="SUMO_DEFAULT_TYPE" vaporized=""/>
    <tripinfo id="up_14" depart="19.00" departLane="53o_0" departPos="5.10" departSpeed="0.00" departDelay="2.00"
              arrival="118.00" arrivalLane="54i_0" arrivalPos="10.00" arrivalSpeed="11.91" duration="99.00"
              routeLength="987.90" waitSteps="4" timeLoss="27.30" rerouteNo="0" devices="tripinfo_up_14"
              vType="SUMO_DEFAULT_TYPE" vaporized=""/>
    <tripinfo id="down_20" depart="24.00" departLane="54o_0" departPos="5.10" departSpeed="0.00" departDelay="0.00"
              arrival="118.00" arrivalLane="53i_0" arrivalPos="10.00" arrivalSpeed="11.91" duration="94.00"
              routeLength="987.90" waitSteps="0" timeLoss="22.30" rerouteNo="0" devices="tripinfo_down_20"
              vType="SUMO_DEFAULT_TYPE" vaporized=""/>
    <tripinfo id="upRL_19" depart="23.00" departLane="53o_0" departPos="5.10" departSpeed="0.00" departDelay="0.00"
              arrival="120.00" arrivalLane="54i_0" arrivalPos="10.00" arrivalSpeed="8.44" duration="97.00"
              routeLength="987.90" waitSteps="2" timeLoss="25.78" rerouteNo="0" devices="tripinfo_upRL_19"
              vType="SUMO_DEFAULT_TYPE" vaporized=""/>
    <tripinfo id="downRL_22" depart="28.00" departLane="54o_0" departPos="5.10" departSpeed="0.00" departDelay="4.00"
              arrival="120.00" arrivalLane="53i_0" arrivalPos="10.00" arrivalSpeed="8.44" duration="92.00"
              routeLength="987.90" waitSteps="0" timeLoss="20.78" rerouteNo="0" devices="tripinfo_downRL_22"
              vType="SUMO_DEFAULT_TYPE" vaporized=""/>
    <tripinfo id="downRL_26" depart="32.00" departLane="54o_0" departPos="5.10" departSpeed="0.00" departDelay="0.00"
              arrival="121.00" arrivalLane="53i_1" arrivalPos="10.00" arrivalSpeed="11.91" duration="89.00"
              routeLength="987.90" waitSteps="0" timeLoss="17.40" rerouteNo="0" devices="tripinfo_downRL_26"
              vType="SUMO_DEFAULT_TYPE" vaporized=""/>
    <tripinfo id="up_25" depart="31.00" departLane="53o_0" departPos="5.10" departSpeed="0.00" departDelay="0.00"
              arrival="121.00" arrivalLane="54i_1" arrivalPos="10.00" arrivalSpeed="11.91" duration="90.00"
              routeLength="987.90" waitSteps="0" timeLoss="18.40" rerouteNo="0" devices="tripinfo_up_25"
              vType="SUMO_DEFAULT_TYPE" vaporized=""/>
    <tripinfo id="upRL_28" depart="35.00" departLane="53o_0" departPos="5.10" departSpeed="0.00" departDelay="1.00"
              arrival="123.00" arrivalLane="54i_0" arrivalPos="10.00" arrivalSpeed="11.91" duration="88.00"
              routeLength="987.90" waitSteps="0" timeLoss="16.18" rerouteNo="0" devices="tripinfo_upRL_28"
              vType="SUMO_DEFAULT_TYPE" vaporized=""/>
    <tripinfo id="downRL_27" depart="36.00" departLane="54o_0" departPos="5.10" departSpeed="0.00" departDelay="3.00"
              arrival="123.00" arrivalLane="53i_0" arrivalPos="10.00" arrivalSpeed="11.91" duration="87.00"
              routeLength="987.90" waitSteps="0" timeLoss="15.22" rerouteNo="0" devices="tripinfo_downRL_27"
              vType="SUMO_DEFAULT_TYPE" vaporized=""/>
    <tripinfo id="upLT_29" depart="39.00" departLane="53o_0" departPos="5.10" departSpeed="0.00" departDelay="4.00"
              arrival="125.00" arrivalLane="54i_0" arrivalPos="10.00" arrivalSpeed="9.19" duration="86.00"
              routeLength="987.90" waitSteps="0" timeLoss="14.69" rerouteNo="0" devices="tripinfo_upLT_29"
              vType="SUMO_DEFAULT_TYPE" vaporized=""/>
    <tripinfo id="up_30" depart="43.00" departLane="53o_0" departPos="5.10" departSpeed="0.00" departDelay="7.00"
              arrival="127.00" arrivalLane="54i_0" arrivalPos="10.00" arrivalSpeed="11.91" duration="84.00"
              routeLength="987.90" waitSteps="0" timeLoss="12.97" rerouteNo="0" devices="tripinfo_up_30"
              vType="SUMO_DEFAULT_TYPE" vaporized=""/>
    <tripinfo id="down_37" depart="43.00" departLane="54o_0" departPos="5.10" departSpeed="0.00" departDelay="0.00"
              arrival="127.00" arrivalLane="53i_0" arrivalPos="10.00" arrivalSpeed="11.91" duration="84.00"
              routeLength="987.90" waitSteps="0" timeLoss="12.94" rerouteNo="0" devices="tripinfo_down_37"
              vType="SUMO_DEFAULT_TYPE" vaporized=""/>
    <tripinfo id="up_39" depart="47.00" departLane="53o_0" departPos="5.10" departSpeed="0.00" departDelay="2.00"
              arrival="131.00" arrivalLane="54i_0" arrivalPos="10.00" arrivalSpeed="11.91" duration="84.00"
              routeLength="987.90" waitSteps="0" timeLoss="12.94" rerouteNo="0" devices="tripinfo_up_39"
              vType="SUMO_DEFAULT_TYPE" vaporized=""/>
    <tripinfo id="downRL_42" depart="49.00" departLane="54o_0" departPos="5.10" departSpeed="0.00" departDelay="0.00"
              arrival="133.00" arrivalLane="53i_0" arrivalPos="10.00" arrivalSpeed="11.91" duration="84.00"
              routeLength="987.90" waitSteps="0" timeLoss="12.94" rerouteNo="0" devices="tripinfo_downRL_42"
              vType="SUMO_DEFAULT_TYPE" vaporized=""/>
    <tripinfo id="leftRL_11" depart="13.00" departLane="52o_0" departPos="5.10" departSpeed="0.00" departDelay="0.00"
              arrival="158.00" arrivalLane="51i_0" arrivalPos="10.00" arrivalSpeed="11.91" duration="145.00"
              routeLength="987.90" waitSteps="52" timeLoss="73.69" rerouteNo="0" devices="tripinfo_leftRL_11"
              vType="SUMO_DEFAULT_TYPE" vaporized=""/>
    <tripinfo id="rightLT_8" depart="10.00" departLane="51o_0" departPos="5.10" departSpeed="0.00" departDelay="0.00"
              arrival="158.00" arrivalLane="52i_0" arrivalPos="10.00" arrivalSpeed="11.91" duration="148.00"
              routeLength="987.90" waitSteps="55" timeLoss="76.69" rerouteNo="0" devices="tripinfo_rightLT_8"
              vType="SUMO_DEFAULT_TYPE" vaporized=""/>
    <tripinfo id="leftLT_18" depart="22.00" departLane="52o_0" departPos="5.10" departSpeed="0.00" departDelay="0.00"
              arrival="160.00" arrivalLane="51i_0" arrivalPos="10.00" arrivalSpeed="10.94" duration="138.00"
              routeLength="987.90" waitSteps="44" timeLoss="66.56" rerouteNo="0" devices="tripinfo_leftLT_18"
              vType="SUMO_DEFAULT_TYPE" vaporized=""/>
    <tripinfo id="rightRL_12" depart="14.00" departLane="51o_0" departPos="5.10" departSpeed="0.00" departDelay="0.00"
              arrival="160.00" arrivalLane="52i_0" arrivalPos="10.00" arrivalSpeed="10.94" duration="146.00"
              routeLength="987.90" waitSteps="52" timeLoss="74.56" rerouteNo="0" devices="tripinfo_rightRL_12"
              vType="SUMO_DEFAULT_TYPE" vaporized=""/>
    <tripinfo id="leftRL_21" depart="26.00" departLane="52o_0" departPos="5.10" departSpeed="0.00" departDelay="2.00"
              arrival="162.00" arrivalLane="51i_0" arrivalPos="10.00" arrivalSpeed="9.94" duration="136.00"
              routeLength="987.90" waitSteps="42" timeLoss="64.55" rerouteNo="0" devices="tripinfo_leftRL_21"
              vType="SUMO_DEFAULT_TYPE" vaporized=""/>
    <tripinfo id="rightRL_15" depart="18.00" departLane="51o_0" departPos="5.10" departSpeed="0.00" departDelay="0.00"
              arrival="162.00" arrivalLane="52i_0" arrivalPos="10.00" arrivalSpeed="9.94" duration="144.00"
              routeLength="987.90" waitSteps="50" timeLoss="72.55" rerouteNo="0" devices="tripinfo_rightRL_15"
              vType="SUMO_DEFAULT_TYPE" vaporized=""/>
    <tripinfo id="right_17" depart="22.00" departLane="51o_0" departPos="5.10" departSpeed="0.00" departDelay="1.00"
              arrival="163.00" arrivalLane="52i_1" arrivalPos="10.00" arrivalSpeed="11.74" duration="141.00"
              routeLength="987.90" waitSteps="47" timeLoss="69.87" rerouteNo="0" devices="tripinfo_right_17"
              vType="SUMO_DEFAULT_TYPE" vaporized=""/>
    <tripinfo id="left_31" depart="39.00" departLane="52o_0" departPos="5.10" departSpeed="0.00" departDelay="0.00"
              arrival="163.00" arrivalLane="51i_1" arrivalPos="10.00" arrivalSpeed="11.74" duration="124.00"
              routeLength="987.90" waitSteps="30" timeLoss="52.87" rerouteNo="0" devices="tripinfo_left_31"
              vType="SUMO_DEFAULT_TYPE" vaporized=""/>
    <tripinfo id="left_32" depart="43.00" departLane="52o_0" departPos="5.10" departSpeed="0.00" departDelay="3.00"
              arrival="165.00" arrivalLane="51i_0" arrivalPos="10.00" arrivalSpeed="11.91" duration="122.00"
              routeLength="987.90" waitSteps="27" timeLoss="50.30" rerouteNo="0" devices="tripinfo_left_32"
              vType="SUMO_DEFAULT_TYPE" vaporized=""/>
    <tripinfo id="right_23" depart="27.00" departLane="51o_0" departPos="5.10" departSpeed="0.00" departDelay="0.00"
              arrival="165.00" arrivalLane="52i_0" arrivalPos="10.00" arrivalSpeed="11.91" duration="138.00"
              routeLength="987.90" waitSteps="43" timeLoss="66.30" rerouteNo="0" devices="tripinfo_right_23"
              vType="SUMO_DEFAULT_TYPE" vaporized=""/>
    <tripinfo id="left_33" depart="47.00" departLane="52o_0" departPos="5.10" departSpeed="0.00" departDelay="6.00"
              arrival="167.00" arrivalLane="51i_0" arrivalPos="10.00" arrivalSpeed="8.44" duration="120.00"
              routeLength="987.90" waitSteps="25" timeLoss="48.78" rerouteNo="0" devices="tripinfo_left_33"
              vType="SUMO_DEFAULT_TYPE" vaporized=""/>
    <tripinfo id="rightRL_24" depart="31.00" departLane="51o_0" departPos="5.10" departSpeed="0.00" departDelay="1.00"
              arrival="167.00" arrivalLane="52i_0" arrivalPos="10.00" arrivalSpeed="8.44" duration="136.00"
              routeLength="987.90" waitSteps="41" timeLoss="64.78" rerouteNo="0" devices="tripinfo_rightRL_24"
              vType="SUMO_DEFAULT_TYPE" vaporized=""/>
    <tripinfo id="right_35" depart="42.00" departLane="51o_0" departPos="5.10" departSpeed="0.00" departDelay="0.00"
              arrival="168.00" arrivalLane="52i_1" arrivalPos="10.00" arrivalSpeed="11.91" duration="126.00"
              routeLength="987.90" waitSteps="31" timeLoss="54.40" rerouteNo="0" devices="tripinfo_right_35"
              vType="SUMO_DEFAULT_TYPE" vaporized=""/>
    <tripinfo id="leftRL_34" depart="51.00" departLane="52o_0" departPos="5.10" departSpeed="0.00" departDelay="10.00"
              arrival="168.00" arrivalLane="51i_1" arrivalPos="10.00" arrivalSpeed="11.91" duration="117.00"
              routeLength="987.90" waitSteps="22" timeLoss="45.40" rerouteNo="0" devices="tripinfo_leftRL_34"
              vType="SUMO_DEFAULT_TYPE" vaporized=""/>
    <tripinfo id="left_36" depart="55.00" departLane="52o_0" departPos="5.10" departSpeed="0.00" departDelay="12.00"
              arrival="170.00" arrivalLane="51i_0" arrivalPos="10.00" arrivalSpeed="11.91" duration="115.00"
              routeLength="987.90" waitSteps="19" timeLoss="43.16" rerouteNo="0" devices="tripinfo_left_36"
              vType="SUMO_DEFAULT_TYPE" vaporized=""/>
    <tripinfo id="right_38" depart="46.00" departLane="51o_0" departPos="5.10" departSpeed="0.00" departDelay="2.00"
              arrival="170.00" arrivalLane="52i_0" arrivalPos="10.00" arrivalSpeed="11.91" duration="124.00"
              routeLength="987.90" waitSteps="28" timeLoss="52.16" rerouteNo="0" devices="tripinfo_right_38"
              vType="SUMO_DEFAULT_TYPE" vaporized=""/>
    <tripinfo id="leftRL_40" depart="59.00" departLane="52o_0" departPos="5.10" departSpeed="0.00" departDelay="14.00"
              arrival="172.00" arrivalLane="51i_0" arrivalPos="10.00" arrivalSpeed="8.21" duration="113.00"
              routeLength="987.90" waitSteps="17" timeLoss="41.73" rerouteNo="0" devices="tripinfo_leftRL_40"
              vType="SUMO_DEFAULT_TYPE" vaporized=""/>
    <tripinfo id="right_43" depart="50.00" departLane="51o_0" departPos="5.10" departSpeed="0.00" departDelay="0.00"
              arrival="172.00" arrivalLane="52i_0" arrivalPos="10.00" arrivalSpeed="8.21" duration="122.00"
              routeLength="987.90" waitSteps="26" timeLoss="50.73" rerouteNo="0" devices="tripinfo_right_43"
              vType="SUMO_DEFAULT_TYPE" vaporized=""/>
    <tripinfo id="rightRL_44" depart="54.00" departLane="51o_0" departPos="5.10" departSpeed="0.00" departDelay="4.00"
              arrival="173.00" arrivalLane="52i_1" arrivalPos="10.00" arrivalSpeed="11.91" duration="119.00"
              routeLength="987.90" waitSteps="23" timeLoss="47.31" rerouteNo="0" devices="tripinfo_rightRL_44"
              vType="SUMO_DEFAULT_TYPE" vaporized=""/>
    <tripinfo id="left_41" depart="63.00" departLane="52o_0" departPos="5.10" departSpeed="0.00" departDelay="14.00"
              arrival="173.00" arrivalLane="51i_1" arrivalPos="10.00" arrivalSpeed="11.91" duration="110.00"
              routeLength="987.90" waitSteps="14" timeLoss="38.31" rerouteNo="0" devices="tripinfo_left_41"
              vType="SUMO_DEFAULT_TYPE" vaporized=""/>
    <tripinfo id="rightRL_47" depart="58.00" departLane="51o_0" departPos="5.10" departSpeed="0.00" departDelay="4.00"
              arrival="174.00" arrivalLane="52i_0" arrivalPos="10.00" arrivalSpeed="11.11" duration="116.00"
              routeLength="987.90" waitSteps="21" timeLoss="44.71" rerouteNo="0" devices="tripinfo_rightRL_47"
              vType="SUMO_DEFAULT_TYPE" vaporized=""/>
    <tripinfo id="left_45" depart="67.00" departLane="52o_0" departPos="5.10" departSpeed="0.00" departDelay="14.00"
              arrival="174.00" arrivalLane="51i_0" arrivalPos="10.00" arrivalSpeed="11.11" duration="107.00"
              routeLength="987.90" waitSteps="12" timeLoss="35.71" rerouteNo="0" devices="tripinfo_left_45"
              vType="SUMO_DEFAULT_TYPE" vaporized=""/>
    <tripinfo id="left_54" depart="71.00" departLane="52o_0" departPos="5.10" departSpeed="0.00" departDelay="3.00"
              arrival="176.00" arrivalLane="51i_0" arrivalPos="10.00" arrivalSpeed="11.91" duration="105.00"
              routeLength="987.90" waitSteps="9" timeLoss="33.45" rerouteNo="0" devices="tripinfo_left_54"
              vType="SUMO_DEFAULT_TYPE" vaporized=""/>
    <tripinfo id="right_50" depart="62.00" departLane="51o_0" departPos="5.10" departSpeed="0.00" departDelay="5.00"
              arrival="176.00" arrivalLane="52i_0" arrivalPos="10.00" arrivalSpeed="11.91" duration="114.00"
              routeLength="987.90" waitSteps="18" timeLoss="42.45" rerouteNo="0" devices="tripinfo_right_50"
              vType="SUMO_DEFAULT_TYPE" vaporized=""/>
    <tripinfo id="leftRL_59" depart="75.00" departLane="52o_0" departPos="5.10" departSpeed="0.00" departDelay="3.00"
              arrival="178.00" arrivalLane="51i_0" arrivalPos="10.00" arrivalSpeed="10.68" duration="103.00"
              routeLength="987.90" waitSteps="6" timeLoss="31.55" rerouteNo="0" devices="tripinfo_leftRL_59"
              vType="SUMO_DEFAULT_TYPE" vaporized=""/>
    <tripinfo id="rightRL_51" depart="66.00" departLane="51o_0" departPos="5.10" departSpeed="0.00" departDelay="7.00"
              arrival="178.00" arrivalLane="52i_0" arrivalPos="10.00" arrivalSpeed="10.68" duration="112.00"
              routeLength="987.90" waitSteps="15" timeLoss="40.55" rerouteNo="0" devices="tripinfo_rightRL_51"
              vType="SUMO_DEFAULT_TYPE" vaporized=""/>
    <tripinfo id="left_68" depart="86.00" departLane="52o_0" departPos="5.10" departSpeed="0.00" departDelay="0.00"
              arrival="180.00" arrivalLane="51i_0" arrivalPos="10.00" arrivalSpeed="9.68" duration="94.00"
              routeLength="987.90" waitSteps="0" timeLoss="22.71" rerouteNo="0" devices="tripinfo_left_68"
              vType="SUMO_DEFAULT_TYPE" vaporized=""/>
    <tripinfo id="right_52" depart="70.00" departLane="51o_0" departPos="5.10" departSpeed="0.00" departDelay="10.00"
              arrival="180.00" arrivalLane="52i_0" arrivalPos="10.00" arrivalSpeed="9.68" duration="110.00"
              routeLength="987.90" waitSteps="13" timeLoss="38.71" rerouteNo="0" devices="tripinfo_right_52"
              vType="SUMO_DEFAULT_TYPE" vaporized=""/>
    <tripinfo id="rightRL_53" depart="74.00" departLane="51o_0" departPos="5.10" departSpeed="0.00" departDelay="14.00"
              arrival="181.00" arrivalLane="52i_1" arrivalPos="10.00" arrivalSpeed="11.48" duration="107.00"
              routeLength="987.90" waitSteps="10" timeLoss="35.73" rerouteNo="0" devices="tripinfo_rightRL_53"
              vType="SUMO_DEFAULT_TYPE" vaporized=""/>
    <tripinfo id="left_73" depart="91.00" departLane="52o_0" departPos="5.10" departSpeed="0.00" departDelay="0.00"
              arrival="181.00" arrivalLane="51i_1" arrivalPos="10.00" arrivalSpeed="11.49" duration="90.00"
              routeLength="987.90" waitSteps="0" timeLoss="18.73" rerouteNo="0" devices="tripinfo_left_73"
              vType="SUMO_DEFAULT_TYPE" vaporized=""/>
    <tripinfo id="leftRL_75" depart="95.00" departLane="52o_0" departPos="5.10" departSpeed="0.00" departDelay="2.00"
              arrival="183.00" arrivalLane="51i_0" arrivalPos="10.00" arrivalSpeed="11.91" duration="88.00"
              routeLength="987.90" waitSteps="0" timeLoss="16.20" rerouteNo="0" devices="tripinfo_leftRL_75"
              vType="SUMO_DEFAULT_TYPE" vaporized=""/>
    <tripinfo id="right_57" depart="78.00" departLane="51o_0" departPos="5.10" departSpeed="0.00" departDelay="7.00"
              arrival="183.00" arrivalLane="52i_0" arrivalPos="10.00" arrivalSpeed="11.91" duration="105.00"
              routeLength="987.90" waitSteps="7" timeLoss="33.18" rerouteNo="0" devices="tripinfo_right_57"
              vType="SUMO_DEFAULT_TYPE" vaporized=""/>
    <tripinfo id="up_46" depart="54.00" departLane="53o_0" departPos="5.10" departSpeed="0.00" departDelay="0.00"
              arrival="205.00" arrivalLane="54i_0" arrivalPos="10.00" arrivalSpeed="11.91" duration="151.00"
              routeLength="987.90" waitSteps="58" timeLoss="79.69" rerouteNo="0" devices="tripinfo_up_46"
              vType="SUMO_DEFAULT_TYPE" vaporized=""/>
    <tripinfo id="downRL_48" depart="54.00" departLane="54o_0" departPos="5.10" departSpeed="0.00" departDelay="0.00"
              arrival="205.00" arrivalLane="53i_0" arrivalPos="10.00" arrivalSpeed="11.91" duration="151.00"
              routeLength="987.90" waitSteps="58" timeLoss="79.69" rerouteNo="0" devices="tripinfo_downRL_48"
              vType="SUMO_DEFAULT_TYPE" vaporized=""/>
    <tripinfo id="upRL_49" depart="58.00" departLane="53o_0" departPos="5.10" departSpeed="0.00" departDelay="2.00"
              arrival="207.00" arrivalLane="54i_0" arrivalPos="10.00" arrivalSpeed="10.94" duration="149.00"
              routeLength="987.90" waitSteps="55" timeLoss="77.56" rerouteNo="0" devices="tripinfo_upRL_49"
              vType="SUMO_DEFAULT_TYPE" vaporized=""/>
    <tripinfo id="downRL_55" depart="68.00" departLane="54o_0" departPos="5.10" departSpeed="0.00" departDelay="0.00"
              arrival="207.00" arrivalLane="53i_0" arrivalPos="10.00" arrivalSpeed="10.94" duration="139.00"
              routeLength="987.90" waitSteps="45" timeLoss="67.56" rerouteNo="0" devices="tripinfo_downRL_55"
              vType="SUMO_DEFAULT_TYPE" vaporized=""/>
    <tripinfo id="upRL_56" depart="70.00" departLane="53o_0" departPos="5.10" departSpeed="0.00" departDelay="0.00"
              arrival="209.00" arrivalLane="54i_0" arrivalPos="10.00" arrivalSpeed="9.94" duration="139.00"
              routeLength="987.90" waitSteps="45" timeLoss="67.55" rerouteNo="0" devices="tripinfo_upRL_56"
              vType="SUMO_DEFAULT_TYPE" vaporized=""/>
    <tripinfo id="downLT_60" depart="73.00" departLane="54o_0" departPos="5.10" departSpeed="0.00" departDelay="0.00"
              arrival="209.00" arrivalLane="53i_0" arrivalPos="10.00" arrivalSpeed="9.94" duration="136.00"
              routeLength="987.90" waitSteps="42" timeLoss="64.55" rerouteNo="0" devices="tripinfo_downLT_60"
              vType="SUMO_DEFAULT_TYPE" vaporized=""/>
    <tripinfo id="downRL_66" depart="84.00" departLane="54o_0" departPos="5.10" departSpeed="0.00" departDelay="0.00"
              arrival="210.00" arrivalLane="53i_1" arrivalPos="10.00" arrivalSpeed="11.74" duration="126.00"
              routeLength="987.90" waitSteps="32" timeLoss="54.87" rerouteNo="0" devices="tripinfo_downRL_66"
              vType="SUMO_DEFAULT_TYPE" vaporized=""/>
    <tripinfo id="upRL_63" depart="80.00" departLane="53o_0" departPos="5.10" departSpeed="0.00" departDelay="0.00"
              arrival="210.00" arrivalLane="54i_1" arrivalPos="10.00" arrivalSpeed="11.74" duration="130.00"
              routeLength="987.90" waitSteps="36" timeLoss="58.87" rerouteNo="0" devices="tripinfo_upRL_63"
              vType="SUMO_DEFAULT_TYPE" vaporized=""/>
    <tripinfo id="upRL_65" depart="84.00" departLane="53o_0" departPos="5.10" departSpeed="0.00" departDelay="2.00"
              arrival="212.00" arrivalLane="54i_0" arrivalPos="10.00" arrivalSpeed="11.91" duration="128.00"
              routeLength="987.90" waitSteps="33" timeLoss="56.30" rerouteNo="0" devices="tripinfo_upRL_65"
              vType="SUMO_DEFAULT_TYPE" vaporized=""/>
    <tripinfo id="downLT_67" depart="88.00" departLane="54o_0" departPos="5.10" departSpeed="0.00" departDelay="3.00"
              arrival="212.00" arrivalLane="53i_0" arrivalPos="10.00" arrivalSpeed="11.91" duration="124.00"
              routeLength="987.90" waitSteps="29" timeLoss="52.30" rerouteNo="0" devices="tripinfo_downLT_67"
              vType="SUMO_DEFAULT_TYPE" vaporized=""/>
    <tripinfo id="upRL_70" depart="88.00" departLane="53o_0" departPos="5.10" departSpeed="0.00" departDelay="1.00"
              arrival="214.00" arrivalLane="54i_0" arrivalPos="10.00" arrivalSpeed="8.44" duration="126.00"
              routeLength="987.90" waitSteps="31" timeLoss="54.78" rerouteNo="0" devices="tripinfo_upRL_70"
              vType="SUMO_DEFAULT_TYPE" vaporized=""/>
    <tripinfo id="down_69" depart="92.00" departLane="54o_0" departPos="5.10" departSpeed="0.00" departDelay="6.00"
              arrival="214.00" arrivalLane="53i_0" arrivalPos="10.00" arrivalSpeed="8.44" duration="122.00"
              routeLength="987.90" waitSteps="27" timeLoss="50.78" rerouteNo="0" devices="tripinfo_down_69"
              vType="SUMO_DEFAULT_TYPE" vaporized=""/>
    <tripinfo id="down_74" depart="96.00" departLane="54o_0" departPos="5.10" departSpeed="0.00" departDelay="5.00"
              arrival="215.00" arrivalLane="53i_1" arrivalPos="10.00" arrivalSpeed="11.91" duration="119.00"
              routeLength="987.90" waitSteps="24" timeLoss="47.40" rerouteNo="0" devices="tripinfo_down_74"
              vType="SUMO_DEFAULT_TYPE" vaporized=""/>
    <tripinfo id="upRL_72" depart="92.00" departLane="53o_0" departPos="5.10" departSpeed="0.00" departDelay="2.00"
              arrival="215.00" arrivalLane="54i_1" arrivalPos="10.00" arrivalSpeed="11.91" duration="123.00"
              routeLength="987.90" waitSteps="28" timeLoss="51.40" rerouteNo="0" devices="tripinfo_upRL_72"
              vType="SUMO_DEFAULT_TYPE" vaporized=""/>
    <tripinfo id="upRL_77" depart="96.00" departLane="53o_0" departPos="5.10" departSpeed="0.00" departDelay="2.00"
              arrival="217.00" arrivalLane="54i_0" arrivalPos="10.00" arrivalSpeed="11.91" duration="121.00"
              routeLength="987.90" waitSteps="25" timeLoss="49.16" rerouteNo="0" devices="tripinfo_upRL_77"
              vType="SUMO_DEFAULT_TYPE" vaporized=""/>
    <tripinfo id="downRL_82" depart="100.00" departLane="54o_0" departPos="5.10" departSpeed="0.00" departDelay="3.00"
              arrival="217.00" arrivalLane="53i_0" arrivalPos="10.00" arrivalSpeed="11.91" duration="117.00"
              routeLength="987.90" waitSteps="21" timeLoss="45.16" rerouteNo="0" devices="tripinfo_downRL_82"
              vType="SUMO_DEFAULT_TYPE" vaporized=""/>
    <tripinfo id="upRL_85" depart="100.00" departLane="53o_0" departPos="5.10" departSpeed="0.00" departDelay="1.00"
              arrival="219.00" arrivalLane="54i_0" arrivalPos="10.00" arrivalSpeed="8.21" duration="119.00"
              routeLength="987.90" waitSteps="23" timeLoss="47.73" rerouteNo="0" devices="tripinfo_upRL_85"
              vType="SUMO_DEFAULT_TYPE" vaporized=""/>
    <tripinfo id="downRL_88" depart="104.00" departLane="54o_0" departPos="5.10" departSpeed="0.00" departDelay="1.00"
              arrival="219.00" arrivalLane="53i_0" arrivalPos="10.00" arrivalSpeed="8.21" duration="115.00"