<?xml version="1.0" encoding="UTF-8"?>

<!-- generated on Wed 03 Apr 2019 02:07:12 AM PDT by SUMO gui Version 0.25.0
<?xml version="1.0" encoding="UTF-8"?>

<configuration xmlns:xsi="http://www.w3.org/2001/XMLSchema-instance" xsi:noNamespaceSchemaLocation="http://sumo.dlr.de/xsd/sumo-gui.exeConfiguration.xsd">

    <input>
        <net-file value="data/cross.net.xml"/>
        <route-files value="data/cross.rou.xml"/>
        <additional-files value="data/cross.add.xml"/>
    </input>

    <output>
        <tripinfo-output value="tripinfo.xml"/>
        <save-state.prefix value="data/state"/>
    </output>

    <time>
        <begin value="0"/>
        <end value="50"/>
    </time>

    <emissions>
        <phemlight-path value="data/./PHEMlight/"/>
    </emissions>

    <traci_server>
        <remote-port value="8873"/>
    </traci_server>

</configuration>
-->

<tripinfos xmlns:xsi="http://www.w3.org/2001/XMLSchema-instance" xsi:noNamespaceSchemaLocation="http://sumo.dlr.de/xsd/tripinfo_file.xsd">
    <tripinfo id="rightLT_2" depart="1.00" departLane="51o_0" departPos="5.10" departSpeed="0.00" departDelay="0.00" arrival="86.00" arrivalLane="54i_0" arrivalPos="10.00" arrivalSpeed="11.91" duration="85.00" routeLength="987.90" waitSteps="0" timeLoss="13.51" rerouteNo="0" devices="tripinfo_rightLT_2" vType="SUMO_DEFAULT_TYPE" vaporized=""/>
    <tripinfo id="down_4" depart="3.00" departLane="54o_0" departPos="5.10" departSpeed="0.00" departDelay="0.00" arrival="88.00" arrivalLane="53i_0" arrivalPos="10.00" arrivalSpeed="11.91" duration="85.00" routeLength="987.90" waitSteps="0" timeLoss="13.94" rerouteNo="0" devices="tripinfo_down_4" vType="SUMO_DEFAULT_TYPE" vaporized=""/>
    <tripinfo id="up_3" depart="2.00" departLane="53o_0" departPos="5.10" departSpeed="0.00" departDelay="0.00" arrival="89.00" arrivalLane="54i_0" arrivalPos="10.00" arrivalSpeed="11.91" duration="87.00" routeLength="987.90" waitSteps="0" timeLoss="15.31" rerouteNo="0" devices="tripinfo_up_3" vType="SUMO_DEFAULT_TYPE" vaporized=""/>
    <tripinfo id="up_5" depart="6.00" departLane="53o_0" departPos="5.10" departSpeed="0.00" departDelay="3.00" arrival="91.00" arrivalLane="54i_0" arrivalPos="10.00" arrivalSpeed="11.25" duration="85.00" routeLength="987.90" waitSteps="0" timeLoss="13.54" rerouteNo="0" devices="tripinfo_up_5" vType="SUMO_DEFAULT_TYPE" vaporized=""/>
    <tripinfo id="up_7" depart="10.00" departLane="53o_0" departPos="5.10" departSpeed="0.00" departDelay="2.00" arrival="94.00" arrivalLane="54i_0" arrivalPos="10.00" arrivalSpeed="11.91" duration="84.00" routeLength="987.90" waitSteps="0" timeLoss="12.94" rerouteNo="0" devices="tripinfo_up_7" vType="SUMO_DEFAULT_TYPE" vaporized=""/>
    <tripinfo id="down_10" depart="11.00" departLane="54o_0" departPos="5.10" departSpeed="0.00" departDelay="0.00" arrival="95.00" arrivalLane="53i_0" arrivalPos="10.00" arrivalSpeed="11.91" duration="84.00" routeLength="987.90" waitSteps="0" timeLoss="12.94" rerouteNo="0" devices="tripinfo_down_10" vType="SUMO_DEFAULT_TYPE" vaporized=""/>
    <tripinfo id="up_14" depart="16.00" departLane="53o_0" departPos="5.10" departSpeed="0.00" departDelay="0.00" arrival="100.00" arrivalLane="54i_0" arrivalPos="10.00" arrivalSpeed="11.91" duration="84.00" routeLength="987.90" waitSteps="0" timeLoss="12.94" rerouteNo="0" devices="tripinfo_up_14" vType="SUMO_DEFAULT_TYPE" vaporized=""/>
    <tripinfo id="downLT_13" depart="16.00" departLane="52o_0" departPos="5.10" departSpeed="0.00" departDelay="1.00" arrival="103.00" arrivalLane="53i_0" arrivalPos="10.00" arrivalSpeed="11.91" duration="87.00" routeLength="987.90" waitSteps="0" timeLoss="15.25" rerouteNo="0" devices="tripinfo_downLT_13" vType="SUMO_DEFAULT_TYPE" vaporized=""/>
    <tripinfo id="left_0" depart="0.00" departLane="52o_0" departPos="5.10" departSpeed="0.00" departDelay="0.00" arrival="114.00" arrivalLane="51i_0" arrivalPos="10.00" arrivalSpeed="11.91" duration="114.00" routeLength="987.90" waitSteps="21" timeLoss="42.69" rerouteNo="0" devices="tripinfo_left_0" vType="SUMO_DEFAULT_TYPE" vaporized=""/>
    <tripinfo id="right_8" depart="11.00" departLane="51o_0" departPos="5.10" departSpeed="0.00" departDelay="0.00" arrival="114.00" arrivalLane="52i_0" arrivalPos="10.00" arrivalSpeed="11.91" duration="103.00" routeLength="987.90" waitSteps="10" timeLoss="31.69" rerouteNo="0" devices="tripinfo_right_8" vType="SUMO_DEFAULT_TYPE" vaporized=""/>
    <tripinfo id="left_1" depart="4.00" departLane="52o_0" departPos="5.10" departSpeed="0.00" departDelay="3.00" arrival="116.00" arrivalLane="51i_0" arrivalPos="10.00" arrivalSpeed="10.94" duration="112.00" routeLength="987.90" waitSteps="18" timeLoss="40.55" rerouteNo="0" devices="tripinfo_left_1" vType="SUMO_DEFAULT_TYPE" vaporized=""/>
    <tripinfo id="right_15" depart="23.00" departLane="51o_0" departPos="5.10" departSpeed="0.00" departDelay="6.00" arrival="116.00" arrivalLane="52i_0" arrivalPos="10.00" arrivalSpeed="10.94" duration="93.00" routeLength="987.90" waitSteps="0" timeLoss="21.56" rerouteNo="0" devices="tripinfo_right_15" vType="SUMO_DEFAULT_TYPE" vaporized=""/>
    <tripinfo id="left_6" depart="8.00" departLane="52o_0" departPos="5.10" departSpeed="0.00" departDelay="3.00" arrival="118.00" arrivalLane="51i_0" arrivalPos="10.00" arrivalSpeed="9.94" duration="110.00" routeLength="987.90" waitSteps="16" timeLoss="38.55" rerouteNo="0" devices="tripinfo_left_6" vType="SUMO_DEFAULT_TYPE" vaporized=""/>
    <tripinfo id="right_16" depart="27.00" departLane="51o_0" departPos="5.10" departSpeed="0.00" departDelay="7.00" arrival="118.00" arrivalLane="52i_0" arrivalPos="10.00" arrivalSpeed="9.94" duration="91.00" routeLength="987.90" waitSteps="0" timeLoss="19.55" rerouteNo="0" devices="tripinfo_right_16" vType="SUMO_DEFAULT_TYPE" vaporized=""/>
    <tripinfo id="right_17" depart="31.00" departLane="51o_0" departPos="5.10" departSpeed="0.00" departDelay="9.00" arrival="119.00" arrivalLane="52i_1" arrivalPos="10.00" arrivalSpeed="11.75" duration="88.00" routeLength="987.90" waitSteps="0" timeLoss="16.86" rerouteNo="0" devices="tripinfo_right_17" vType="SUMO_DEFAULT_TYPE" vaporized=""/>
    <tripinfo id="left_9" depart="12.00" departLane="52o_0" departPos="5.10" departSpeed="0.00" departDelay="1.00" arrival="119.00" arrivalLane="51i_1" arrivalPos="10.00" arrivalSpeed="11.74" duration="107.00" routeLength="987.90" waitSteps="13" timeLoss="35.87" rerouteNo="0" devices="tripinfo_left_9" vType="SUMO_DEFAULT_TYPE" vaporized=""/>
    <tripinfo id="left_22" depart="37.00" departLane="52o_0" departPos="5.10" departSpeed="0.00" departDelay="0.00" arrival="121.00" arrivalLane="51i_0" arrivalPos="10.00" arrivalSpeed="11.91" duration="84.00" routeLength="987.90" waitSteps="0" timeLoss="13.04" rerouteNo="0" devices="tripinfo_left_22" vType="SUMO_DEFAULT_TYPE" vaporized=""/>
    <tripinfo id="right_18" depart="35.00" departLane="51o_0" departPos="5.10" departSpeed="0.00" departDelay="7.00" arrival="121.00" arrivalLane="52i_0" arrivalPos="10.00" arrivalSpeed="11.91" duration="86.00" routeLength="987.90" waitSteps="0" timeLoss="14.31" rerouteNo="0" devices="tripinfo_right_18" vType="SUMO_DEFAULT_TYPE" vaporized=""/>
    <tripinfo id="right_19" depart="39.00" departLane="51o_0" departPos="5.10" departSpeed="0.00" departDelay="7.00" arrival="123.00" arrivalLane="52i_0" arrivalPos="10.00" arrivalSpeed="11.91" duration="84.00" routeLength="987.90" waitSteps="0" timeLoss="13.00" rerouteNo="0" devices="tripinfo_right_19" vType="SUMO_DEFAULT_TYPE" vaporized=""/>
    <tripinfo id="downLT_25" depart="42.00" departLane="52o_0" departPos="5.10" departSpeed="0.00" departDelay="0.00" arrival="129.00" arrivalLane="53i_0" arrivalPos="10.00" arrivalSpeed="11.91" duration="87.00" routeLength="987.90" waitSteps="0" timeLoss="15.31" rerouteNo="0" devices="tripinfo_downLT_25" vType="SUMO_DEFAULT_TYPE" vaporized=""/>
    <tripinfo id="down_21" depart="37.00" departLane="54o_0" departPos="5.10" departSpeed="0.00" departDelay="1.00" arrival="134.00" arrivalLane="53i_0" arrivalPos="10.00" arrivalSpeed="11.91" duration="97.00" routeLength="987.90" waitSteps="4" timeLoss="25.69" rerouteNo="0" devices="tripinfo_down_21" vType="SUMO_DEFAULT_TYPE" vaporized=""/>
    <tripinfo id="down_23" depart="41.00" departLane="54o_0" departPos="5.10" departSpeed="0.00" departDelay="4.00" arrival="136.00" arrivalLane="53i_0" arrivalPos="10.00" arrivalSpeed="10.94" duration="95.00" routeLength="987.90" waitSteps="1" timeLoss="23.55" rerouteNo="0" devices="tripinfo_down_23" vType="SUMO_DEFAULT_TYPE" vaporized=""/>
    <tripinfo id="down_27" depart="49.00" departLane="54o_0" departPos="5.10" departSpeed="0.00" departDelay="0.00" arrival="138.00" arrivalLane="53i_0" arrivalPos="10.00" arrivalSpeed="9.95" duration="89.00" routeLength="987.90" waitSteps="0" timeLoss="17.54" rerouteNo="0" devices="tripinfo_down_27" vType="SUMO_DEFAULT_TYPE" vaporized=""/>
    <tripinfo id="up_29" depart="55.00" departLane="53o_0" departPos="5.10" departSpeed="0.00" departDelay="3.00" arrival="140.00" arrivalLane="54i_0" arrivalPos="10.00" arrivalSpeed="11.91" duration="85.00" routeLength="987.90" waitSteps="0" timeLoss="13.22" rerouteNo="0" devices="tripinfo_up_29" vType="SUMO_DEFAULT_TYPE" vaporized=""/>
    <tripinfo id="up_30" depart="59.00" departLane="53o_0" departPos="5.10" departSpeed="0.00" departDelay="6.00" arrival="144.00" arrivalLane="54i_0" arrivalPos="10.00" arrivalSpeed="11.91" duration="85.00" routeLength="987.90" waitSteps="0" timeLoss="13.22" rerouteNo="0" devices="tripinfo_up_30" vType="SUMO_DEFAULT_TYPE" vaporized=""/>
    <tripinfo id="right_26" depart="47.00" departLane="51o_0" departPos="5.10" departSpeed="0.00" departDelay="1.00" arrival="154.00" arrivalLane="52i_0" arrivalPos="10.00" arrivalSpeed="11.91" duration="107.00" routeLength="987.90" waitSteps="14" timeLoss="35.69" rerouteNo="0" devices="tripinfo_right_26" vType="SUMO_DEFAULT_TYPE" vaporized=""/>
    <tripinfo id="rightLT_11" depart="15.00" departLane="51o_0" departPos="5.10" departSpeed="0.00" departDelay="3.00" arrival="154.00" arrivalLane="54i_0" arrivalPos="10.00" arrivalSpeed="11.91" duration="139.00" routeLength="987.90" waitSteps="46" timeLoss="67.69" rerouteNo="0" devices="tripinfo_rightLT_11" vType="SUMO_DEFAULT_TYPE" vaporized=""/>
    <tripinfo id="right_35" depart="63.00" departLane="51o_0" departPos="5.10" departSpeed="0.00" departDelay="0.00" arrival="156.00" arrivalLane="52i_0" arrivalPos="10.00" arrivalSpeed="10.94" duration="93.00" routeLength="987.90" waitSteps="0" timeLoss="21.56" rerouteNo="0" devices="tripinfo_right_35" vType="SUMO_DEFAULT_TYPE" vaporized=""/>
    <tripinfo id="rightLT_12" depart="19.00" departLane="51o_0" departPos="5.10" departSpeed="0.00" departDelay="4.00" arrival="156.00" arrivalLane="54i_0" arrivalPos="10.00" arrivalSpeed="9.76" duration="137.00" routeLength="987.90" waitSteps="43" timeLoss="65.78" rerouteNo="0" devices="tripinfo_rightLT_12" vType="SUMO_DEFAULT_TYPE" vaporized=""/>
    <tripinfo id="rightLT_24" depart="43.00" departLane="51o_0" departPos="5.10" departSpeed="0.00" departDelay="3.00" arrival="157.00" arrivalLane="54i_1" arrivalPos="10.00" arrivalSpeed="11.91" duration="114.00" routeLength="987.90" waitSteps="21" timeLoss="42.94" rerouteNo="0" devices="tripinfo_rightLT_24" vType="SUMO_DEFAULT_TYPE" vaporized=""/>
    <tripinfo id="right_37" depart="67.00" departLane="51o_0" departPos="5.10" departSpeed="0.00" departDelay="1.00" arrival="158.00" arrivalLane="52i_0" arrivalPos="10.00" arrivalSpeed="9.94" duration="91.00" routeLength="987.90" waitSteps="0" timeLoss="19.55" rerouteNo="0" devices="tripinfo_right_37" vType="SUMO_DEFAULT_TYPE" vaporized=""/>
    <tripinfo id="right_39" depart="71.00" departLane="51o_0" departPos="5.10" departSpeed="0.00" departDelay="2.00" arrival="159.00" arrivalLane="52i_1" arrivalPos="10.00" arrivalSpeed="11.75" duration="88.00" routeLength="987.90" waitSteps="0" timeLoss="16.86" rerouteNo="0" devices="tripinfo_right_39" vType="SUMO_DEFAULT_TYPE" vaporized=""/>
    <tripinfo id="right_42" depart="75.00" departLane="51o_0" departPos="5.10" departSpeed="0.00" departDelay="0.00" arrival="161.00" arrivalLane="52i_0" arrivalPos="10.00" arrivalSpeed="11.91" duration="86.00" routeLength="987.90" waitSteps="0" timeLoss="14.32" rerouteNo="0" devices="tripinfo_right_42" vType="SUMO_DEFAULT_TYPE" vaporized=""/>
    <tripinfo id="right_43" depart="79.00" departLane="51o_0" departPos="5.10" departSpeed="0.00" departDelay="3.00" arrival="163.00" arrivalLane="52i_0" arrivalPos="10.00" arrivalSpeed="11.91" duration="84.00" routeLength="987.90" waitSteps="0" timeLoss="12.97" rerouteNo="0" devices="tripinfo_right_43" vType="SUMO_DEFAULT_TYPE" vaporized=""/>
    <tripinfo id="down_47" depart="83.00" departLane="54o_0" departPos="5.10" departSpeed="0.00" departDelay="1.00" arrival="168.00" arrivalLane="53i_0" arrivalPos="10.00" arrivalSpeed="11.91" duration="85.00" routeLength="987.90" waitSteps="0" timeLoss="13.94" rerouteNo="0" devices="tripinfo_down_47" vType="SUMO_DEFAULT_TYPE" vaporized=""/>
    <tripinfo id="up_31" depart="63.00" departLane="53o_0" departPos="5.10" departSpeed="0.00" departDelay="9.00" arrival="174.00" arrivalLane="54i_0" arrivalPos="10.00" arrivalSpeed="11.91" duration="111.00" routeLength="987.90" waitSteps="19" timeLoss="39.09" rerouteNo="0" devices="tripinfo_up_31" vType="SUMO_DEFAULT_TYPE" vaporized=""/>
    <tripinfo id="downLT_36" depart="64.00" departLane="52o_0" departPos="5.10" departSpeed="0.00" departDelay="0.00" arrival="179.00" arrivalLane="53i_0" arrivalPos="10.00" arrivalSpeed="11.91" duration="115.00" routeLength="987.90" waitSteps="20" timeLoss="43.26" rerouteNo="0" devices="tripinfo_downLT_36" vType="SUMO_DEFAULT_TYPE" vaporized=""/>
    <tripinfo id="downLT_41" depart="74.00" departLane="52o_0" departPos="5.10" departSpeed="0.00" departDelay="0.00" arrival="181.00" arrivalLane="53i_0" arrivalPos="10.00" arrivalSpeed="11.13" duration="107.00" routeLength="987.90" waitSteps="10" timeLoss="35.88" rerouteNo="0" devices="tripinfo_downLT_41" vType="SUMO_DEFAULT_TYPE" vaporized=""/>
    <tripinfo id="up_45" depart="81.00" departLane="53o_0" departPos="5.10" departSpeed="0.00" departDelay="0.00" arrival="187.00" arrivalLane="54i_0" arrivalPos="10.00" arrivalSpeed="11.91" duration="106.00" routeLength="987.90" waitSteps="9" timeLoss="34.64" rerouteNo="0" devices="tripinfo_up_45" vType="SUMO_DEFAULT_TYPE" vaporized=""/>
    <tripinfo id="up_48" depart="85.00" departLane="53o_0" departPos="5.10" departSpeed="0.00" departDelay="0.00" arrival="189.00" arrivalLane="54i_0" arrivalPos="10.00" arrivalSpeed="10.64" duration="104.00" routeLength="987.90" waitSteps="8" timeLoss="32.56" rerouteNo="0" devices="tripinfo_up_48" vType="SUMO_DEFAULT_TYPE" vaporized=""/>
    <tripinfo id="right_46" depart="83.00" departLane="51o_0" departPos="5.10" departSpeed="0.00" departDelay="1.00" arrival="194.00" arrivalLane="52i_0" arrivalPos="10.00" arrivalSpeed="11.91" duration="111.00" routeLength="987.90" waitSteps="19" timeLoss="38.64" rerouteNo="0" devices="tripinfo_right_46" vType="SUMO_DEFAULT_TYPE" vaporized=""/>
    <tripinfo id="left_32" depart="60.00" departLane="52o_0" departPos="5.10" departSpeed="0.00" departDelay="0.00" arrival="194.00" arrivalLane="51i_0" arrivalPos="10.00" arrivalSpeed="11.91" duration="134.00" routeLength="987.90" waitSteps="41" timeLoss="62.69" rerouteNo="0" devices="tripinfo_left_32" vType="SUMO_DEFAULT_TYPE" vaporized=""/>
    <tripinfo id="right_51" depart="91.00" departLane="51o_0" departPos="5.10" departSpeed="0.00" departDelay="1.00" arrival="196.00" arrivalLane="52i_0" arrivalPos="10.00" arrivalSpeed="10.60" duration="105.00" routeLength="987.90" waitSteps="11" timeLoss="33.57" rerouteNo="0" devices="tripinfo_right_51" vType="SUMO_DEFAULT_TYPE" vaporized=""/>
    <tripinfo id="left_53" depart="92.00" departLane="52o_0" departPos="5.10" departSpeed="0.00" departDelay="0.00" arrival="196.00" arrivalLane="51i_0" arrivalPos="10.00" arrivalSpeed="10.94" duration="104.00" routeLength="987.90" waitSteps="10" timeLoss="32.55" rerouteNo="0" devices="tripinfo_left_53" vType="SUMO_DEFAULT_TYPE" vaporized=""/>
    <tripinfo id="right_52" depart="95.00" departLane="51o_0" departPos="5.10" departSpeed="0.00" departDelay="4.00" arrival="198.00" arrivalLane="52i_0" arrivalPos="10.00" arrivalSpeed="9.60" duration="103.00" routeLength="987.90" waitSteps="9" timeLoss="31.59" rerouteNo="0" devices="tripinfo_right_52" vType="SUMO_DEFAULT_TYPE" vaporized=""/>
    <tripinfo id="left_54" depart="102.00" departLane="52o_0" departPos="5.10" departSpeed="0.00" departDelay="0.00" arrival="198.00" arrivalLane="51i_0" arrivalPos="10.00" arrivalSpeed="9.94" duration="96.00" routeLength="987.90" waitSteps="2" timeLoss="24.55" rerouteNo="0" devices="tripinfo_left_54" vType="SUMO_DEFAULT_TYPE" vaporized=""/>
    <tripinfo id="right_58" depart="108.00" departLane="51o_0" departPos="5.10" departSpeed="0.00" departDelay="0.00" arrival="199.00" arrivalLane="52i_1" arrivalPos="10.00" arrivalSpeed="11.40" duration="91.00" routeLength="987.90" waitSteps="0" timeLoss="19.91" rerouteNo="0" devices="tripinfo_right_58" vType="SUMO_DEFAULT_TYPE" vaporized=""/>
    <tripinfo id="left_59" depart="109.00" departLane="52o_0" departPos="5.10" departSpeed="0.00" departDelay="0.00" arrival="199.00" arrivalLane="51i_1" arrivalPos="10.00" arrivalSpeed="11.74" duration="90.00" routeLength="987.90" waitSteps="0" timeLoss="18.87" rerouteNo="0" devices="tripinfo_left_59" vType="SUMO_DEFAULT_TYPE" vaporized=""/>
    <tripinfo id="left_61" depart="116.00" departLane="52o_0" departPos="5.10" departSpeed="0.00" departDelay="0.00" arrival="201.00" arrivalLane="51i_0" arrivalPos="10.00" arrivalSpeed="11.91" duration="85.00" routeLength="987.90" waitSteps="0" timeLoss="13.41" rerouteNo="0" devices="tripinfo_left_61" vType="SUMO_DEFAULT_TYPE" vaporized=""/>
    <tripinfo id="down_55" depart="103.00" departLane="54o_0" departPos="5.10" departSpeed="0.00" departDelay="0.00" arrival="214.00" arrivalLane="53i_0" arrivalPos="10.00" arrivalSpeed="11.91" duration="111.00" routeLength="987.90" waitSteps="19" timeLoss="38.85" rerouteNo="0" devices="tripinfo_down_55" vType="SUMO_DEFAULT_TYPE" vaporized=""/>
    <tripinfo id="leftLT_20" depart="33.00" departLane="54o_0" departPos="5.10" departSpeed="0.00" departDelay="0.00" arrival="214.00" arrivalLane="52i_0" arrivalPos="10.00" arrivalSpeed="11.91" duration="181.00" routeLength="987.90" waitSteps="88" timeLoss="109.69" rerouteNo="0" devices="tripinfo_leftLT_20" vType="SUMO_DEFAULT_TYPE" vaporized=""/>
    <tripinfo id="down_57" depart="107.00" departLane="54o_0" departPos="5.10" departSpeed="0.00" departDelay="0.00" arrival="216.00" arrivalLane="53i_0" arrivalPos="10.00" arrivalSpeed="10.60" duration="109.00" routeLength="987.90" waitSteps="15" timeLoss="37.57" rerouteNo="0" devices="tripinfo_down_57" vType="SUMO_DEFAULT_TYPE" vaporized=""/>
    <tripinfo id="leftLT_33" depart="61.00" departLane="54o_0" departPos="5.10" departSpeed="0.00" departDelay="0.00" arrival="216.00" arrivalLane="52i_0" arrivalPos="10.00" arrivalSpeed="9.76" duration="155.00" routeLength="987.90" waitSteps="61" timeLoss="83.78" rerouteNo="0" devices="tripinfo_leftLT_33" vType="SUMO_DEFAULT_TYPE" vaporized=""/>
    <tripinfo id="leftLT_34" depart="65.00" departLane="54o_0" departPos="5.10" departSpeed="0.00" departDelay="3.00" arrival="217.00" arrivalLane="52i_1" arrivalPos="10.00" arrivalSpeed="11.91" duration="152.00" routeLength="987.90" waitSteps="59" timeLoss="80.94" rerouteNo="0" devices="tripinfo_leftLT_34" vType="SUMO_DEFAULT_TYPE" vaporized=""/>
    <tripinfo id="down_60" depart="111.00" departLane="54o_0" departPos="5.10" departSpeed="0.00" departDelay="1.00" arrival="218.00" arrivalLane="53i_0" arrivalPos="10.00" arrivalSpeed="9.60" duration="107.00" routeLength="987.90" waitSteps="12" timeLoss="35.59" rerouteNo="0" devices="tripinfo_down_60" vType="SUMO_DEFAULT_TYPE" vaporized=""/>
    <tripinfo id="leftLT_40" depart="73.00" departLane="54o_0" departPos="5.10" departSpeed="0.00" departDelay="0.00" arrival="219.00" arrivalLane="52i_0" arrivalPos="10.00" arrivalSpeed="11.91" duration="146.00" routeLength="987.90" waitSteps="52" timeLoss="74.61" rerouteNo="0" devices="tripinfo_leftLT_40" vType="SUMO_DEFAULT_TYPE" vaporized=""/>
    <tripinfo id="down_68" depart="130.00" departLane="54o_0" departPos="5.10" departSpeed="0.00" departDelay="3.00" arrival="219.00" arrivalLane="53i_1" arrivalPos="10.00" arrivalSpeed="11.41" duration="89.00" routeLength="987.90" waitSteps="0" timeLoss="17.91" rerouteNo="0" devices="tripinfo_down_68" vType="SUMO_DEFAULT_TYPE" vaporized=""/>
    <tripinfo id="down_69" depart="134.00" departLane="54o_0" departPos="5.10" departSpeed="0.00" departDelay="6.00" arrival="221.00" arrivalLane="53i_0" arrivalPos="10.00" arrivalSpeed="11.91" duration="87.00" routeLength="987.90" waitSteps="0" timeLoss="15.26" rerouteNo="0" devices="tripinfo_down_69" vType="SUMO_DEFAULT_TYPE" vaporized=""/>
    <tripinfo id="leftLT_44" depart="79.00" departLane="54o_0" departPos="5.10" departSpeed="0.00" departDelay="0.00" arrival="221.00" arrivalLane="52i_0" arrivalPos="10.00" arrivalSpeed="9.15" duration="142.00" routeLength="987.90" waitSteps="47" timeLoss="70.91" rerouteNo="0" devices="tripinfo_leftLT_44" vType="SUMO_DEFAULT_TYPE" vaporized=""/>
    <tripinfo id="leftLT_67" depart="126.00" departLane="54o_0" departPos="5.10" departSpeed="0.00" departDelay="0.00" arrival="222.00" arrivalLane="52i_1" arrivalPos="10.00" arrivalSpeed="11.91" duration="96.00" routeLength="987.90" waitSteps="2" timeLoss="24.66" rerouteNo="0" devices="tripinfo_leftLT_67" vType="SUMO_DEFAULT_TYPE" vaporized=""/>
    <tripinfo id="down_71" depart="138.00" departLane="54o_0" departPos="5.10" departSpeed="0.00" departDelay="9.00" arrival="223.00" arrivalLane="53i_0" arrivalPos="10.00" arrivalSpeed="11.19" duration="85.00" routeLength="987.90" waitSteps="0" timeLoss="13.54" rerouteNo="0" devices="tripinfo_down_71" vType="SUMO_DEFAULT_TYPE" vaporized=""/>
    <tripinfo id="down_76" depart="142.00" departLane="54o_0" departPos="5.10" departSpeed="0.00" departDelay="3.00" arrival="226.00" arrivalLane="53i_0" arrivalPos="10.00" arrivalSpeed="11.91" duration="84.00" routeLength="987.90" waitSteps="0" timeLoss="12.94" rerouteNo="0" devices="tripinfo_down_76" vType="SUMO_DEFAULT_TYPE" vaporized=""/>
    <tripinfo id="right_66" depart="125.00" departLane="51o_0" departPos="5.10" departSpeed="0.00" departDelay="0.00" arrival="234.00" arrivalLane="52i_0" arrivalPos="10.00" arrivalSpeed="11.91" duration="109.00" routeLength="987.90" waitSteps="16" timeLoss="37.69" rerouteNo="0" devices="tripinfo_right_66" vType="SUMO_DEFAULT_TYPE" vaporized=""/>
    <tripinfo id="left_70" depart="129.00" departLane="52o_0" departPos="5.10" departSpeed="0.00" departDelay="0.00" arrival="234.00" arrivalLane="51i_0" arrivalPos="10.00" arrivalSpeed="11.91" duration="105.00" routeLength="987.90" waitSteps="12" timeLoss="33.69" rerouteNo="0" devices="tripinfo_left_70" vType="SUMO_DEFAULT_TYPE" vaporized=""/>
    <tripinfo id="right_73" depart="133.00" departLane="51o_0" departPos="5.10" departSpeed="0.00" departDelay="0.00" arrival="236.00" arrivalLane="52i_0" arrivalPos="10.00" arrivalSpeed="10.94" duration="103.00" routeLength="987.90" waitSteps="9" timeLoss="31.55" rerouteNo="0" devices="tripinfo_right_73" vType="SUMO_DEFAULT_TYPE" vaporized=""/>
    <tripinfo id="left_72" depart="133.00" departLane="52o_0" departPos="5.10" departSpeed="0.00" departDelay="2.00" arrival="236.00" arrivalLane="51i_0" arrivalPos="10.00" arrivalSpeed="10.94" duration="103.00" routeLength="987.90" waitSteps="9" timeLoss="31.55" rerouteNo="0" devices="tripinfo_left_72" vType="SUMO_DEFAULT_TYPE" vaporized=""/>
    <tripinfo id="right_80" depart="146.00" departLane="51o_0" departPos="5.10" departSpeed="0.00" departDelay="0.00" arrival="238.00" arrivalLane="52i_0" arrivalPos="10.00" arrivalSpeed="9.94" duration="92.00" routeLength="987.90" waitSteps="0" timeLoss="20.55" rerouteNo="0" devices="tripinfo_right_80" vType="SUMO_DEFAULT_TYPE" vaporized=""/>
    <tripinfo id="left_74" depart="137.00" departLane="52o_0" departPos="5.10" departSpeed="0.00" departDelay="3.00" arrival="238.00" arrivalLane="51i_0" arrivalPos="10.00" arrivalSpeed="9.94" duration="101.00" routeLength="987.90" waitSteps="7" timeLoss="29.55" rerouteNo="0" devices="tripinfo_left_74" vType="SUMO_DEFAULT_TYPE" vaporized=""/>
    <tripinfo id="left_83" depart="150.00" departLane="52o_0" departPos="5.10" departSpeed="0.00" departDelay="2.00" arrival="239.00" arrivalLane="51i_1" arrivalPos="10.00" arrivalSpeed="11.74" duration="89.00" routeLength="987.90" waitSteps="0" timeLoss="17.87" rerouteNo="0" devices="tripinfo_left_83" vType="SUMO_DEFAULT_TYPE" vaporized=""/>
    <tripinfo id="right_82" depart="150.00" departLane="51o_0" departPos="5.10" departSpeed="0.00" departDelay="2.00" arrival="239.00" arrivalLane="52i_1" arrivalPos="10.00" arrivalSpeed="11.74" duration="89.00" routeLength="987.90" waitSteps="0" timeLoss="17.87" rerouteNo="0" devices="tripinfo_right_82" vType="SUMO_DEFAULT_TYPE" vaporized=""/>
    <tripinfo id="right_85" depart="155.00" departLane="51o_0" departPos="5.10" departSpeed="0.00" departDelay="0.00" arrival="241.00" arrivalLane="52i_0" arrivalPos="10.00" arrivalSpeed="11.91" duration="86.00" routeLength="987.90" waitSteps="0" timeLoss="14.31" rerouteNo="0" devices="tripinfo_right_85" vType="SUMO_DEFAULT_TYPE" vaporized=""/>
    <tripinfo id="left_84" depart="154.00" departLane="52o_0" departPos="5.10" departSpeed="0.00" departDelay="5.00" arrival="241.00" arrivalLane="51i_0" arrivalPos="10.00" arrivalSpeed="11.91" duration="87.00" routeLength="987.90" waitSteps="0" timeLoss="15.31" rerouteNo="0" devices="tripinfo_left_84" vType="SUMO_DEFAULT_TYPE" vaporized=""/>
    <tripinfo id="right_86" depart="160.00" departLane="51o_0" departPos="5.10" departSpeed="0.00" departDelay="0.00" arrival="244.00" arrivalLane="52i_0" arrivalPos="10.00" arrivalSpeed="11.91" duration="84.00" routeLength="987.90" waitSteps="0" timeLoss="12.94" rerouteNo="0" devices="tripinfo_right_86" vType="SUMO_DEFAULT_TYPE" vaporized=""/>
    <tripinfo id="left_87" depart="160.00" departLane="52o_0" departPos="5.10" departSpeed="0.00" departDelay="0.00" arrival="244.00" arrivalLane="51i_0" arrivalPos="10.00" arrivalSpeed="11.91" duration="84.00" routeLength="987.90" waitSteps="0" timeLoss="12.94" rerouteNo="0" devices="tripinfo_left_87" vType="SUMO_DEFAULT_TYPE" vaporized=""/>
    <tripinfo id="down_88" depart="165.00" departLane="54o_0" departPos="5.10" departSpeed="0.00" departDelay="0.00" arrival="249.00" arrivalLane="53i_0" arrivalPos="10.00" arrivalSpeed="11.91" duration="84.00" routeLength="987.90" waitSteps="0" timeLoss="12.94" rerouteNo="0" devices="tripinfo_down_88" vType="SUMO_DEFAULT_TYPE" vaporized=""/>
    <tripinfo id="up_50" depart="89.00" departLane="53o_0" departPos="5.10" departSpeed="0.00" departDelay="0.00" arrival="254.00" arrivalLane="54i_0" arrivalPos="10.00" arrivalSpeed="11.91" duration="165.00" routeLength="987.90" waitSteps="66" timeLoss="93.69" rerouteNo="0" devices="tripinfo_up_50" vType="SUMO_DEFAULT_TYPE" vaporized=""/>
    <tripinfo id="downLT_63" depart="120.00" departLane="52o_0" departPos="5.10" departSpeed="0.00" departDelay="0.00" arrival="260.00" arrivalLane="53i_0" arrivalPos="10.00" arrivalSpeed="11.91" duration="140.00" routeLength="987.90" waitSteps="43" timeLoss="69.03" rerouteNo="0" devices="tripinfo_downLT_63" vType="SUMO_DEFAULT_TYPE" vaporized=""/>
    <tripinfo id="downLT_81" depart="146.00" departLane="52o_0" departPos="5.10" departSpeed="0.00" departDelay="0.00" arrival="262.00" arrivalLane="53i_0" arrivalPos="10.00" arrivalSpeed="10.87" duration="116.00" routeLength="987.90" waitSteps="18" timeLoss="44.87" rerouteNo="0" devices="tripinfo_downLT_81" vType="SUMO_DEFAULT_TYPE" vaporized=""/>
    <tripinfo id="down_99" depart="182.00" departLane="54o_0" departPos="5.10" departSpeed="0.00" departDelay="1.00" arrival="267.00" arrivalLane="53i_0" arrivalPos="10.00" arrivalSpeed="11.91" duration="85.00" routeLength="987.90" waitSteps="0" timeLoss="13.46" rerouteNo="0" devices="tripinfo_down_99" vType="SUMO_DEFAULT_TYPE" vaporized=""/>
    <tripinfo id="up_56" depart="106.00" departLane="53o_0" departPos="5.10" departSpeed="0.00" departDelay="0.00" arrival="268.00" arrivalLane="54i_0" arrivalPos="10.00" arrivalSpeed="11.91" duration="162.00" routeLength="987.90" waitSteps="65" timeLoss="90.64" rerouteNo="0" devices="tripinfo_up_56" vType="SUMO_DEFAULT_TYPE" vaporized=""/>
    <tripinfo id="down_100" depart="186.00" departLane="54o_0" departPos="5.10" departSpeed="0.00" departDelay="1.00" arrival="270.00" arrivalLane="53i_0" arrivalPos="10.00" arrivalSpeed="11.91" duration="84.00" routeLength="987.90" waitSteps="0" timeLoss="12.94" rerouteNo="0" devices="tripinfo_down_100" vType="SUMO_DEFAULT_TYPE" vaporized=""/>
    <tripinfo id="up_64" depart="121.00" departLane="53o_0" departPos="5.10" departSpeed="0.00" departDelay="0.00" arrival="270.00" arrivalLane="54i_0" arrivalPos="10.00" arrivalSpeed="10.64" duration="149.00" routeLength="987.90" waitSteps="52" timeLoss="77.56" rerouteNo="0" devices="tripinfo_up_64" vType="SUMO_DEFAULT_TYPE" vaporized=""/>
    <tripinfo id="up_65" depart="125.00" departLane="53o_0" departPos="5.10" departSpeed="0.00" departDelay="1.00" arrival="272.00" arrivalLane="54i_0" arrivalPos="10.00" arrivalSpeed="9.64" duration="147.00" routeLength="987.90" waitSteps="49" timeLoss="75.58" rerouteNo="0" devices="tripinfo_up_65" vType="SUMO_DEFAULT_TYPE" vaporized=""/>