<?xml version="1.0" encoding="UTF-8"?>

<!-- generated on Tue 09 Apr 2019 12:26:48 PM PDT by SUMO gui Version 0.25.0
<?xml version="1.0" encoding="UTF-8"?>

<configuration xmlns:xsi="http://www.w3.org/2001/XMLSchema-instance" xsi:noNamespaceSchemaLocation="http://sumo.dlr.de/xsd/sumo-gui.exeConfiguration.xsd">

    <input>
        <net-file value="va_data/cross.net.xml"/>
        <route-files value="va_data/cross.rou.xml"/>
        <additional-files value="va_data/cross.add.xml"/>
    </input>

    <output>
        <summary-output value="OUTPUT/tripinfo_va.xml"/>
        <save-state.prefix value="va_data/state"/>
    </output>

    <time>
        <begin value="0"/>
        <end value="50"/>
    </time>

    <emissions>
        <phemlight-path value="va_data/./PHEMlight/"/>
    </emissions>

    <traci_server>
        <remote-port value="8873"/>
    </traci_server>

</configuration>
-->

<summary xmlns:xsi="http://www.w3.org/2001/XMLSchema-instance"
         xsi:noNamespaceSchemaLocation="http://sumo.dlr.de/xsd/summary_file.xsd">
    <step time="0.00" loaded="2" inserted="1" running="1" waiting="0" ended="0" meanWaitingTime="0.00"
          meanTravelTime="-1.00" duration="1185"/>
    <step time="1.00" loaded="200" inserted="2" running="2" waiting="1" ended="0" meanWaitingTime="0.00"
          meanTravelTime="-1.00" duration="0"/>
    <step time="2.00" loaded="200" inserted="3" running="3" waiting="2" ended="0" meanWaitingTime="0.00"
          meanTravelTime="-1.00" duration="8"/>
    <step time="3.00" loaded="200" inserted="4" running="4" waiting="2" ended="0" meanWaitingTime="0.00"
          meanTravelTime="-1.00" duration="0"/>
    <step time="4.00" loaded="200" inserted="5" running="5" waiting="2" ended="0" meanWaitingTime="0.60"
          meanTravelTime="-1.00" duration="0"/>
    <step time="5.00" loaded="200" inserted="5" running="5" waiting="2" ended="0" meanWaitingTime="0.60"
          meanTravelTime="-1.00" duration="0"/>
    <step time="6.00" loaded="200" inserted="6" running="6" waiting="2" ended="0" meanWaitingTime="0.50"
          meanTravelTime="-1.00" duration="0"/>
    <step time="7.00" loaded="200" inserted="6" running="6" waiting="3" ended="0" meanWaitingTime="0.50"
          meanTravelTime="-1.00" duration="0"/>
    <step time="8.00" loaded="200" inserted="7" running="7" waiting="2" ended="0" meanWaitingTime="1.29"
          meanTravelTime="-1.00" duration="0"/>
    <step time="9.00" loaded="200" inserted="8" running="8" waiting="3" ended="0" meanWaitingTime="1.12"
          meanTravelTime="-1.00" duration="0"/>
    <step time="10.00" loaded="200" inserted="9" running="9" waiting="4" ended="0" meanWaitingTime="1.00"
          meanTravelTime="-1.00" duration="0"/>
    <step time="11.00" loaded="200" inserted="10" running="10" waiting="5" ended="0" meanWaitingTime="0.90"
          meanTravelTime="-1.00" duration="0"/>
    <step time="12.00" loaded="200" inserted="11" running="11" waiting="6" ended="0" meanWaitingTime="1.55"
          meanTravelTime="-1.00" duration="0"/>
    <step time="13.00" loaded="200" inserted="12" running="12" waiting="5" ended="0" meanWaitingTime="1.67"
          meanTravelTime="-1.00" duration="0"/>
    <step time="14.00" loaded="200" inserted="13" running="13" waiting="5" ended="0" meanWaitingTime="1.69"
          meanTravelTime="-1.00" duration="0"/>
    <step time="15.00" loaded="200" inserted="13" running="13" waiting="6" ended="0" meanWaitingTime="1.69"
          meanTravelTime="-1.00" duration="0"/>
    <step time="16.00" loaded="200" inserted="14" running="14" waiting="7" ended="0" meanWaitingTime="2.21"
          meanTravelTime="-1.00" duration="0"/>
    <step time="17.00" loaded="200" inserted="14" running="14" waiting="8" ended="0" meanWaitingTime="2.21"
          meanTravelTime="-1.00" duration="0"/>
    <step time="18.00" loaded="200" inserted="16" running="16" waiting="8" ended="0" meanWaitingTime="2.06"
          meanTravelTime="-1.00" duration="0"/>
    <step time="19.00" loaded="200" inserted="16" running="16" waiting="8" ended="0" meanWaitingTime="2.06"
          meanTravelTime="-1.00" duration="0"/>
    <step time="20.00" loaded="200" inserted="17" running="17" waiting="7" ended="0" meanWaitingTime="2.59"
          meanTravelTime="-1.00" duration="0"/>
    <step time="21.00" loaded="200" inserted="17" running="17" waiting="8" ended="0" meanWaitingTime="2.59"
          meanTravelTime="-1.00" duration="0"/>
    <step time="22.00" loaded="200" inserted="18" running="18" waiting="7" ended="0" meanWaitingTime="2.72"
          meanTravelTime="-1.00" duration="0"/>
    <step time="23.00" loaded="200" inserted="18" running="18" waiting="8" ended="0" meanWaitingTime="2.72"
          meanTravelTime="-1.00" duration="0"/>
    <step time="24.00" loaded="200" inserted="20" running="20" waiting="7" ended="0" meanWaitingTime="3.10"
          meanTravelTime="-1.00" duration="0"/>
    <step time="25.00" loaded="200" inserted="20" running="20" waiting="8" ended="0" meanWaitingTime="3.10"
          meanTravelTime="-1.00" duration="0"/>
    <step time="26.00" loaded="200" inserted="20" running="20" waiting="9" ended="0" meanWaitingTime="3.10"
          meanTravelTime="-1.00" duration="0"/>
    <step time="27.00" loaded="200" inserted="20" running="20" waiting="9" ended="0" meanWaitingTime="3.10"
          meanTravelTime="-1.00" duration="0"/>
    <step time="28.00" loaded="200" inserted="22" running="22" waiting="9" ended="0" meanWaitingTime="3.55"
          meanTravelTime="-1.00" duration="0"/>
    <step time="29.00" loaded="200" inserted="22" running="22" waiting="10" ended="0" meanWaitingTime="3.55"
          meanTravelTime="-1.00" duration="0"/>
    <step time="30.00" loaded="200" inserted="22" running="22" waiting="10" ended="0" meanWaitingTime="3.55"
          meanTravelTime="-1.00" duration="0"/>
    <step time="31.00" loaded="200" inserted="22" running="22" waiting="10" ended="0" meanWaitingTime="3.55"
          meanTravelTime="-1.00" duration="0"/>
    <step time="32.00" loaded="200" inserted="24" running="24" waiting="10" ended="0" meanWaitingTime="4.00"
          meanTravelTime="-1.00" duration="0"/>
    <step time="33.00" loaded="200" inserted="25" running="25" waiting="12" ended="0" meanWaitingTime="3.84"
          meanTravelTime="-1.00" duration="0"/>
    <step time="34.00" loaded="200" inserted="25" running="25" waiting="14" ended="0" meanWaitingTime="3.84"
          meanTravelTime="-1.00" duration="0"/>
    <step time="35.00" loaded="200" inserted="25" running="25" waiting="15" ended="0" meanWaitingTime="3.84"
          meanTravelTime="-1.00" duration="0"/>
    <step time="36.00" loaded="200" inserted="27" running="27" waiting="16" ended="0" meanWaitingTime="4.41"
          meanTravelTime="-1.00" duration="0"/>
    <step time="37.00" loaded="200" inserted="28" running="28" waiting="17" ended="0" meanWaitingTime="4.29"
          meanTravelTime="-1.00" duration="0"/>
    <step time="38.00" loaded="200" inserted="29" running="29" waiting="19" ended="0" meanWaitingTime="4.14"
          meanTravelTime="-1.00" duration="0"/>
    <step time="39.00" loaded="200" inserted="29" running="29" waiting="20" ended="0" meanWaitingTime="4.14"
          meanTravelTime="-1.00" duration="0"/>
    <step time="40.00" loaded="200" inserted="31" running="31" waiting="20" ended="0" meanWaitingTime="4.68"
          meanTravelTime="-1.00" duration="0"/>
    <step time="41.00" loaded="200" inserted="32" running="32" waiting="19" ended="0" meanWaitingTime="4.66"
          meanTravelTime="-1.00" duration="0"/>
    <step time="42.00" loaded="200" inserted="32" running="32" waiting="20" ended="0" meanWaitingTime="4.66"
          meanTravelTime="-1.00" duration="0"/>
    <step time="43.00" loaded="200" inserted="32" running="32" waiting="20" ended="0" meanWaitingTime="4.66"
          meanTravelTime="-1.00" duration="0"/>
    <step time="44.00" loaded="200" inserted="33" running="33" waiting="20" ended="0" meanWaitingTime="5.30"
          meanTravelTime="-1.00" duration="0"/>
    <step time="45.00" loaded="200" inserted="35" running="35" waiting="19" ended="0" meanWaitingTime="5.14"
          meanTravelTime="-1.00" duration="0"/>
    <step time="46.00" loaded="200" inserted="35" running="35" waiting="20" ended="0" meanWaitingTime="5.14"
          meanTravelTime="-1.00" duration="0"/>
    <step time="47.00" loaded="200" inserted="35" running="35" waiting="20" ended="0" meanWaitingTime="5.14"
          meanTravelTime="-1.00" duration="0"/>
    <step time="48.00" loaded="200" inserted="36" running="36" waiting="19" ended="0" meanWaitingTime="5.75"
          meanTravelTime="-1.00" duration="0"/>
    <step time="49.00" loaded="200" inserted="37" running="37" waiting="18" ended="0" meanWaitingTime="5.68"
          meanTravelTime="-1.00" duration="0"/>
    <step time="50.00" loaded="200" inserted="37" running="37" waiting="19" ended="0" meanWaitingTime="5.68"
          meanTravelTime="-1.00" duration="1"/>
    <step time="51.00" loaded="200" inserted="37" running="37" waiting="21" ended="0" meanWaitingTime="5.68"
          meanTravelTime="-1.00" duration="0"/>
    <step time="52.00" loaded="200" inserted="38" running="38" waiting="21" ended="0" meanWaitingTime="6.29"
          meanTravelTime="-1.00" duration="1"/>
    <step time="53.00" loaded="200" inserted="39" running="39" waiting="20" ended="0" meanWaitingTime="6.18"
          meanTravelTime="-1.00" duration="0"/>
    <step time="54.00" loaded="200" inserted="40" running="40" waiting="20" ended="0" meanWaitingTime="6.03"
          meanTravelTime="-1.00" duration="1"/>
    <step time="55.00" loaded="200" inserted="40" running="40" waiting="22" ended="0" meanWaitingTime="6.03"
          meanTravelTime="-1.00" duration="0"/>
    <step time="56.00" loaded="200" inserted="41" running="41" waiting="22" ended="0" meanWaitingTime="6.63"
          meanTravelTime="-1.00" duration="1"/>
    <step time="57.00" loaded="200" inserted="42" running="42" waiting="21" ended="0" meanWaitingTime="6.60"
          meanTravelTime="-1.00" duration="1"/>
    <step time="58.00" loaded="200" inserted="42" running="42" waiting="22" ended="0" meanWaitingTime="6.60"
          meanTravelTime="-1.00" duration="0"/>
    <step time="59.00" loaded="200" inserted="42" running="42" waiting="24" ended="0" meanWaitingTime="6.60"
          meanTravelTime="-1.00" duration="1"/>
    <step time="60.00" loaded="200" inserted="43" running="43" waiting="23" ended="0" meanWaitingTime="7.23"
          meanTravelTime="-1.00" duration="0"/>
    <step time="61.00" loaded="200" inserted="44" running="44" waiting="22" ended="0" meanWaitingTime="7.20"
          meanTravelTime="-1.00" duration="0"/>
    <step time="62.00" loaded="200" inserted="44" running="44" waiting="22" ended="0" meanWaitingTime="7.20"
          meanTravelTime="-1.00" duration="1"/>
    <step time="63.00" loaded="200" inserted="44" running="44" waiting="24" ended="0" meanWaitingTime="7.20"
          meanTravelTime="-1.00" duration="0"/>
    <step time="64.00" loaded="200" inserted="46" running="46" waiting="23" ended="0" meanWaitingTime="7.67"
          meanTravelTime="-1.00" duration="1"/>
    <step time="65.00" loaded="200" inserted="47" running="47" waiting="22" ended="0" meanWaitingTime="7.70"
          meanTravelTime="-1.00" duration="0"/>
    <step time="66.00" loaded="200" inserted="48" running="48" waiting="22" ended="0" meanWaitingTime="7.54"
          meanTravelTime="-1.00" duration="0"/>
    <step time="67.00" loaded="200" inserted="48" running="48" waiting="23" ended="0" meanWaitingTime="7.54"
          meanTravelTime="-1.00" duration="0"/>
    <step time="68.00" loaded="200" inserted="49" running="49" waiting="22" ended="0" meanWaitingTime="8.18"
          meanTravelTime="-1.00" duration="0"/>
    <step time="69.00" loaded="200" inserted="50" running="50" waiting="22" ended="0" meanWaitingTime="8.24"
          meanTravelTime="-1.00" duration="0"/>
    <step time="70.00" loaded="200" inserted="50" running="50" waiting="22" ended="0" meanWaitingTime="8.24"
          meanTravelTime="-1.00" duration="0"/>
    <step time="71.00" loaded="200" inserted="51" running="51" waiting="24" ended="0" meanWaitingTime="8.08"
          meanTravelTime="-1.00" duration="0"/>
    <step time="72.00" loaded="200" inserted="52" running="52" waiting="24" ended="0" meanWaitingTime="8.69"
          meanTravelTime="-1.00" duration="0"/>
    <step time="73.00" loaded="200" inserted="53" running="53" waiting="23" ended="0" meanWaitingTime="8.79"
          meanTravelTime="-1.00" duration="1"/>
    <step time="74.00" loaded="200" inserted="53" running="53" waiting="23" ended="0" meanWaitingTime="8.79"
          meanTravelTime="-1.00" duration="0"/>
    <step time="75.00" loaded="200" inserted="53" running="53" waiting="23" ended="0" meanWaitingTime="8.79"
          meanTravelTime="-1.00" duration="1"/>
    <step time="76.00" loaded="200" inserted="54" running="54" waiting="22" ended="0" meanWaitingTime="9.43"
          meanTravelTime="-1.00" duration="0"/>
    <step time="77.00" loaded="200" inserted="55" running="55" waiting="21" ended="0" meanWaitingTime="9.51"
          meanTravelTime="-1.00" duration="0"/>
    <step time="78.00" loaded="200" inserted="55" running="55" waiting="21" ended="0" meanWaitingTime="9.51"
          meanTravelTime="-1.00" duration="0"/>
    <step time="79.00" loaded="200" inserted="56" running="56" waiting="22" ended="0" meanWaitingTime="9.34"
          meanTravelTime="-1.00" duration="0"/>
    <step time="80.00" loaded="200" inserted="57" running="57" waiting="22" ended="0" meanWaitingTime="10.00"
          meanTravelTime="-1.00" duration="0"/>
    <step time="81.00" loaded="200" inserted="59" running="59" waiting="22" ended="0" meanWaitingTime="9.90"
          meanTravelTime="-1.00" duration="0"/>
    <step time="82.00" loaded="200" inserted="59" running="59" waiting="22" ended="0" meanWaitingTime="9.90"
          meanTravelTime="-1.00" duration="0"/>
    <step time="83.00" loaded="200" inserted="60" running="60" waiting="21" ended="0" meanWaitingTime="9.78"
          meanTravelTime="-1.00" duration="0"/>
    <step time="84.00" loaded="200" inserted="61" running="60" waiting="21" ended="1" meanWaitingTime="10.44"
          meanTravelTime="84.00" duration="1"/>
    <step time="85.00" loaded="200" inserted="63" running="62" waiting="19" ended="1" meanWaitingTime="10.35"
          meanTravelTime="84.00" duration="1"/>
    <step time="86.00" loaded="200" inserted="63" running="62" waiting="20" ended="1" meanWaitingTime="10.35"
          meanTravelTime="84.00" duration="0"/>
    <step time="87.00" loaded="200" inserted="63" running="62" waiting="20" ended="1" meanWaitingTime="10.35"
          meanTravelTime="84.00" duration="0"/>
    <step time="88.00" loaded="200" inserted="64" running="62" waiting="20" ended="2" meanWaitingTime="11.02"
          meanTravelTime="84.00" duration="1"/>
    <step time="89.00" loaded="200" inserted="66" running="64" waiting="19" ended="2" meanWaitingTime="11.00"
          meanTravelTime="84.00" duration="0"/>
    <step time="90.00" loaded="200" inserted="67" running="65" waiting="19" ended="2" meanWaitingTime="10.84"
          meanTravelTime="84.00" duration="0"/>
    <step time="91.00" loaded="200" inserted="67" running="65" waiting="20" ended="2" meanWaitingTime="10.84"
          meanTravelTime="84.00" duration="0"/>
    <step time="92.00" loaded="200" inserted="68" running="65" waiting="19" ended="3" meanWaitingTime="11.50"
          meanTravelTime="84.00" duration="0"/>
    <step time="93.00" loaded="200" inserted="69" running="66" waiting="18" ended="3" meanWaitingTime="11.64"
          meanTravelTime="84.00" duration="0"/>
    <step time="94.00" loaded="200" inserted="69" running="66" waiting="18" ended="3" meanWaitingTime="11.64"
          meanTravelTime="84.00" duration="0"/>
    <step time="95.00" loaded="200" inserted="69" running="66" waiting="20" ended="3" meanWaitingTime="11.64"
          meanTravelTime="84.00" duration="1"/>
    <step time="96.00" loaded="200" inserted="70" running="66" waiting="20" ended="4" meanWaitingTime="12.33"
          meanTravelTime="84.00" duration="0"/>
    <step time="97.00" loaded="200" inserted="71" running="67" waiting="20" ended="4" meanWaitingTime="12.41"
          meanTravelTime="84.00" duration="1"/>
    <step time="98.00" loaded="200" inserted="71" running="67" waiting="20" ended="4" meanWaitingTime="12.41"
          meanTravelTime="84.00" duration="0"/>
    <step time="99.00" loaded="200" inserted="71" running="67" waiting="21" ended="4" meanWaitingTime="12.41"
          meanTravelTime="84.00" duration="0"/>
    <step time="100.00" loaded="200" inserted="73" running="68" waiting="20" ended="5" meanWaitingTime="12.93"
          meanTravelTime="84.00" duration="1"/>
    <step time="101.00" loaded="200" inserted="74" running="69" waiting="20" ended="5" meanWaitingTime="12.93"
          meanTravelTime="84.00" duration="0"/>
    <step time="102.00" loaded="200" inserted="74" running="69" waiting="21" ended="5" meanWaitingTime="12.93"
          meanTravelTime="84.00" duration="0"/>
    <step time="103.00" loaded="200" inserted="74" running="69" waiting="21" ended="5" meanWaitingTime="12.93"
          meanTravelTime="84.00" duration="0"/>
    <step time="104.00" loaded="200" inserted="77" running="72" waiting="22" ended="5" meanWaitingTime="13.32"
          meanTravelTime="84.00" duration="0"/>
    <step time="105.00" loaded="200" inserted="78" running="72" waiting="21" ended="6" meanWaitingTime="13.36"
          meanTravelTime="84.17" duration="1"/>
    <step time="106.00" loaded="200" inserted="78" running="72" waiting="22" ended="6" meanWaitingTime="13.36"
          meanTravelTime="84.17" duration="0"/>
    <step time="107.00" loaded="200" inserted="78" running="72" waiting="24" ended="6" meanWaitingTime="13.36"
          meanTravelTime="84.17" duration="0"/>
    <step time="108.00" loaded="200" inserted="80" running="73" waiting="23" ended="7" meanWaitingTime="13.91"
          meanTravelTime="84.14" duration="1"/>
    <step time="109.00" loaded="200" inserted="81" running="74" waiting="23" ended="7" meanWaitingTime="13.96"
          meanTravelTime="84.14" duration="1"/>
    <step time="110.00" loaded="200" inserted="81" running="74" waiting="23" ended="7" meanWaitingTime="13.96"
          meanTravelTime="84.14" duration="0"/>
    <step time="111.00" loaded="200" inserted="81" running="74" waiting="24" ended="7" meanWaitingTime="13.96"
          meanTravelTime="84.14" duration="0"/>
    <step time="112.00" loaded="200" inserted="82" running="74" waiting="24" ended="8" meanWaitingTime="14.67"
          meanTravelTime="84.12" duration="0"/>
    <step time="113.00" loaded="200" inserted="83" running="75" waiting="23" ended="8" meanWaitingTime="14.71"
          meanTravelTime="84.12" duration="0"/>
    <step time="114.00" loaded="200" inserted="83" running="75" waiting="25" ended="8" meanWaitingTime="14.71"
          meanTravelTime="84.12" duration="0"/>
    <step time="115.00" loaded="200" inserted="84" running="76" waiting="25" ended="8" meanWaitingTime="14.54"
          meanTravelTime="84.12" duration="0"/>
    <step time="116.00" loaded="200" inserted="85" running="76" waiting="26" ended="9" meanWaitingTime="15.24"
          meanTravelTime="84.11" duration="0"/>
    <step time="117.00" loaded="200" inserted="86" running="77" waiting="27" ended="9" meanWaitingTime="15.29"
          meanTravelTime="84.11" duration="1"/>
    <step time="118.00" loaded="200" inserted="87" running="78" waiting="27" ended="9" meanWaitingTime="15.11"
          meanTravelTime="84.11" duration="0"/>
    <step time="119.00" loaded="200" inserted="87" running="78" waiting="28" ended="9" meanWaitingTime="15.11"
          meanTravelTime="84.11" duration="0"/>
    <step time="120.00" loaded="200" inserted="88" running="78" waiting="29" ended="10" meanWaitingTime="15.81"
          meanTravelTime="84.10" duration="1"/>
    <step time="121.00" loaded="200" inserted="89" running="79" waiting="29" ended="10" meanWaitingTime="15.88"
          meanTravelTime="84.10" duration="0"/>
    <step time="122.00" loaded="200" inserted="90" running="80" waiting="29" ended="10" meanWaitingTime="15.71"
          meanTravelTime="84.10" duration="0"/>
    <step time="123.00" loaded="200" inserted="90" running="80" waiting="29" ended="10" meanWaitingTime="15.71"
          meanTravelTime="84.10" duration="1"/>
    <step time="124.00" loaded="200" inserted="91" running="80" waiting="28" ended="11" meanWaitingTime="16.35"
          meanTravelTime="84.09" duration="0"/>
    <step time="125.00" loaded="200" inserted="92" running="81" waiting="27" ended="11" meanWaitingTime="16.40"
          meanTravelTime="84.09" duration="0"/>
    <step time="126.00" loaded="200" inserted="93" running="82" waiting="29" ended="11" meanWaitingTime="16.23"
          meanTravelTime="84.09" duration="1"/>
    <step time="127.00" loaded="200" inserted="93" running="82" waiting="29" ended="11" meanWaitingTime="16.23"
          meanTravelTime="84.09" duration="1"/>
    <step time="128.00" loaded="200" inserted="94" running="83" waiting="28" ended="11" meanWaitingTime="16.87"
          meanTravelTime="84.09" duration="0"/>
    <step time="129.00" loaded="200" inserted="95" running="84" waiting="29" ended="11" meanWaitingTime="16.96"
          meanTravelTime="84.09" duration="0"/>
    <step time="130.00" loaded="200" inserted="95" running="84" waiting="30" ended="11" meanWaitingTime="16.96"
          meanTravelTime="84.09" duration="2"/>
    <step time="131.00" loaded="200" inserted="95" running="84" waiting="31" ended="11" meanWaitingTime="16.96"
          meanTravelTime="84.09" duration="1"/>
    <step time="132.00" loaded="200" inserted="96" running="85" waiting="32" ended="11" meanWaitingTime="17.58"
          meanTravelTime="84.09" duration="0"/>
    <step time="133.00" loaded="200" inserted="97" running="86" waiting="32" ended="11" meanWaitingTime="17.66"
          meanTravelTime="84.09" duration="0"/>
    <step time="134.00" loaded="200" inserted="97" running="86" waiting="33" ended="11" meanWaitingTime="17.66"
          meanTravelTime="84.09" duration="0"/>
    <step time="135.00" loaded="200" inserted="98" running="87" waiting="33" ended="11" meanWaitingTime="17.48"
          meanTravelTime="84.09" duration="0"/>
    <step time="136.00" loaded="200" inserted="99" running="88" waiting="32" ended="11" meanWaitingTime="18.08"
          meanTravelTime="84.09" duration="1"/>
    <step time="137.00" loaded="200" inserted="100" running="89" waiting="31" ended="11" meanWaitingTime="18.16"
          meanTravelTime="84.09" duration="0"/>
    <step time="138.00" loaded="200" inserted="100" running="89" waiting="32" ended="11" meanWaitingTime="18.16"
          meanTravelTime="84.09" duration="0"/>
    <step time="139.00" loaded="200" inserted="100" running="89" waiting="32" ended="11" meanWaitingTime="18.16"
          meanTravelTime="84.09" duration="0"/>
    <step time="140.00" loaded="200" inserted="101" running="88" waiting="32" ended="13" meanWaitingTime="18.74"
          meanTravelTime="92.31" duration="1"/>
    <step time="141.00" loaded="200" inserted="102" running="89" waiting="31" ended="13" meanWaitingTime="18.84"
          meanTravelTime="92.31" duration="0"/>
    <step time="142.00" loaded="200" inserted="102" running="87" waiting="32" ended="15" meanWaitingTime="18.84"
          meanTravelTime="97.67" duration="0"/>
    <step time="143.00" loaded="200" inserted="102" running="87" waiting="32" ended="15" meanWaitingTime="18.84"
          meanTravelTime="97.67" duration="1"/>
    <step time="144.00" loaded="200" inserted="103" running="86" waiting="32" ended="17" meanWaitingTime="19.39"
          meanTravelTime="101.53" duration="0"/>
    <step time="145.00" loaded="200" inserted="105" running="86" waiting="31" ended="19" meanWaitingTime="19.31"
          meanTravelTime="104.21" duration="0"/>
    <step time="146.00" loaded="200" inserted="105" running="86" waiting="32" ended="19" meanWaitingTime="19.31"
          meanTravelTime="104.21" duration="1"/>
    <step time="147.00" loaded="200" inserted="105" running="84" waiting="33" ended="21" meanWaitingTime="19.31"
          meanTravelTime="104.90" duration="0"/>
    <step time="148.00" loaded="200" inserted="106" running="85" waiting="33" ended="21" meanWaitingTime="19.76"
          meanTravelTime="104.90" duration="0"/>
    <step time="149.00" loaded="200" inserted="107" running="85" waiting="33" ended="22" meanWaitingTime="19.89"
          meanTravelTime="105.05" duration="1"/>
    <step time="150.00" loaded="200" inserted="107" running="84" waiting="36" ended="23" meanWaitingTime="19.89"
          meanTravelTime="104.65" duration="0"/>
    <step time="151.00" loaded="200" inserted="108" running="85" waiting="37" ended="23" meanWaitingTime="19.70"
          meanTravelTime="104.65" duration="0"/>
    <step time="152.00" loaded="200" inserted="109" running="85" waiting="36" ended="24" meanWaitingTime="20.05"
          meanTravelTime="103.88" duration="1"/>
    <step time="153.00" loaded="200" inserted="110" running="86" waiting="35" ended="24" meanWaitingTime="20.19"
          meanTravelTime="103.88" duration="1"/>
    <step time="154.00" loaded="200" inserted="110" running="86" waiting="37" ended="24" meanWaitingTime="20.19"
          meanTravelTime="103.88" duration="0"/>
    <step time="155.00" loaded="200" inserted="110" running="85" waiting="39" ended="25" meanWaitingTime="20.19"
          meanTravelTime="103.08" duration="0"/>
    <step time="156.00" loaded="200" inserted="111" running="86" waiting="39" ended="25" meanWaitingTime="20.55"
          meanTravelTime="103.08" duration="0"/>
    <step time="157.00" loaded="200" inserted="113" running="88" waiting="38" ended="25" meanWaitingTime="20.52"
          meanTravelTime="103.08" duration="0"/>
    <step time="158.00" loaded="200" inserted="113" running="88" waiting="39" ended="25" meanWaitingTime="20.52"
          meanTravelTime="103.08" duration="1"/>
    <step time="159.00" loaded="200" inserted="113" running="87" waiting="39" ended="26" meanWaitingTime="20.52"
          meanTravelTime="104.38" duration="0"/>
    <step time="160.00" loaded="200" inserted="114" running="88" waiting="39" ended="26" meanWaitingTime="20.85"
          meanTravelTime="104.38" duration="0"/>
    <step time="161.00" loaded="200" inserted="115" running="88" waiting="38" ended="27" meanWaitingTime="21.03"
          meanTravelTime="104.11" duration="1"/>
    <step time="162.00" loaded="200" inserted="116" running="89" waiting="38" ended="27" meanWaitingTime="20.84"
          meanTravelTime="104.11" duration="0"/>
    <step time="163.00" loaded="200" inserted="116" running="88" waiting="38" ended="28" meanWaitingTime="20.84"
          meanTravelTime="104.89" duration="0"/>
    <step time="164.00" loaded="200" inserted="118" running="89" waiting="37" ended="29" meanWaitingTime="21.00"
          meanTravelTime="105.38" duration="1"/>
    <step time="165.00" loaded="200" inserted="119" running="90" waiting="38" ended="29" meanWaitingTime="21.18"
          meanTravelTime="105.38" duration="0"/>
    <step time="166.00" loaded="200" inserted="119" running="90" waiting="39" ended="29" meanWaitingTime="21.18"
          meanTravelTime="105.38" duration="0"/>
    <step time="167.00" loaded="200" inserted="119" running="90" waiting="40" ended="29" meanWaitingTime="21.18"
          meanTravelTime="105.38" duration="1"/>
    <step time="168.00" loaded="200" inserted="120" running="91" waiting="39" ended="29" meanWaitingTime="21.52"
          meanTravelTime="105.38" duration="0"/>
    <step time="169.00" loaded="200" inserted="121" running="92" waiting="39" ended="29" meanWaitingTime="21.70"
          meanTravelTime="105.38" duration="0"/>
    <step time="170.00" loaded="200" inserted="121" running="90" waiting="39" ended="31" meanWaitingTime="21.70"
          meanTravelTime="108.10" duration="1"/>
    <step time="171.00" loaded="200" inserted="121" running="90" waiting="40" ended="31" meanWaitingTime="21.70"
          meanTravelTime="108.10" duration="0"/>
    <step time="172.00" loaded="200" inserted="123" running="90" waiting="40" ended="33" meanWaitingTime="21.88"
          meanTravelTime="110.33" duration="0"/>
    <step time="173.00" loaded="200" inserted="125" running="92" waiting="39" ended="33" meanWaitingTime="21.88"
          meanTravelTime="110.33" duration="1"/>
    <step time="174.00" loaded="200" inserted="125" running="90" waiting="40" ended="35" meanWaitingTime="21.88"
          meanTravelTime="112.17" duration="1"/>
    <step time="175.00" loaded="200" inserted="125" running="88" waiting="43" ended="37" meanWaitingTime="21.88"
          meanTravelTime="113.41" duration="0"/>
    <step time="176.00" loaded="200" inserted="126" running="89" waiting="43" ended="37" meanWaitingTime="22.24"
          meanTravelTime="113.41" duration="0"/>
    <step time="177.00" loaded="200" inserted="128" running="89" waiting="41" ended="39" meanWaitingTime="22.27"
          meanTravelTime="114.41" duration="0"/>
    <step time="178.00" loaded="200" inserted="128" running="89" waiting="42" ended="39" meanWaitingTime="22.27"
          meanTravelTime="114.41" duration="1"/>
    <step time="179.00" loaded="200" inserted="128" running="87" waiting="43" ended="41" meanWaitingTime="22.27"
          meanTravelTime="115.22" duration="1"/>
    <step time="180.00" loaded="200" inserted="129" running="86" waiting="42" ended="43" meanWaitingTime="22.60"
          meanTravelTime="115.81" duration="1"/>
    <step time="181.00" loaded="200" inserted="130" running="86" waiting="42" ended="44" meanWaitingTime="22.76"
          meanTravelTime="115.66" duration="0"/>
    <step time="182.00" loaded="200" inserted="130" running="85" waiting="45" ended="45" meanWaitingTime="22.76"