<?xml version="1.0" encoding="UTF-8"?>

<!-- generated on Tue 30 Apr 2019 11:30:07 AM PDT by SUMO gui Version 0.25.0
<?xml version="1.0" encoding="UTF-8"?>

<configuration xmlns:xsi="http://www.w3.org/2001/XMLSchema-instance" xsi:noNamespaceSchemaLocation="http://sumo.dlr.de/xsd/sumo-gui.exeConfiguration.xsd">

    <input>
        <net-file value="data/cross.net.xml"/>
        <route-files value="data/cross.rou.xml"/>
        <additional-files value="data/cross.add.xml"/>
    </input>

    <output>
        <tripinfo-output value="OUTPUT/trip_infoq15.xml"/>
        <save-state.prefix value="data/state"/>
    </output>

    <time>
        <begin value="0"/>
        <end value="50"/>
    </time>

    <emissions>
        <phemlight-path value="data/./PHEMlight/"/>
    </emissions>

    <traci_server>
        <remote-port value="8873"/>
    </traci_server>

</configuration>
-->

<detector xmlns:xsi="http://www.w3.org/2001/XMLSchema-instance"
          xsi:noNamespaceSchemaLocation="http://sumo.dlr.de/xsd/det_e1_file.xsd">
    <interval begin="0.00" end="900.00" id="1i_1" nVehContrib="28" flow="112.00" occupancy="81.47" speed="16.73"
              length="5.00" nVehEntered="28"/>
    <interval begin="0.00" end="900.00" id="1i_2" nVehContrib="0" flow="0.00" occupancy="0.00" speed="-1.00"
              length="-1.00" nVehEntered="0"/>
    <interval begin="0.00" end="900.00" id="2i_1" nVehContrib="0" flow="0.00" occupancy="0.00" speed="-1.00"
              length="-1.00" nVehEntered="0"/>
    <interval begin="0.00" end="900.00" id="2i_2" nVehContrib="0" flow="0.00" occupancy="0.00" speed="-1.00"
              length="-1.00" nVehEntered="0"/>
    <interval begin="0.00" end="900.00" id="3i_1" nVehContrib="0" flow="0.00" occupancy="0.00" speed="-1.00"
              length="-1.00" nVehEntered="0"/>
    <interval begin="0.00" end="900.00" id="3i_2" nVehContrib="0" flow="0.00" occupancy="0.00" speed="-1.00"
              length="-1.00" nVehEntered="0"/>
    <interval begin="0.00" end="900.00" id="4i_1" nVehContrib="0" flow="0.00" occupancy="0.00" speed="-1.00"
              length="-1.00" nVehEntered="0"/>
    <interval begin="0.00" end="900.00" id="4i_2" nVehContrib="0" flow="0.00" occupancy="0.00" speed="-1.00"
              length="-1.00" nVehEntered="0"/>
    <interval begin="900.00" end="1800.00" id="1i_1" nVehContrib="10" flow="40.00" occupancy="97.76" speed="4.03"
              length="5.00" nVehEntered="10"/>
    <interval begin="900.00" end="1800.00" id="1i_2" nVehContrib="0" flow="0.00" occupancy="0.00" speed="-1.00"
              length="-1.00" nVehEntered="0"/>
    <interval begin="900.00" end="1800.00" id="2i_1" nVehContrib="0" flow="0.00" occupancy="0.00" speed="-1.00"
              length="-1.00" nVehEntered="0"/>
    <interval begin="900.00" end="1800.00" id="2i_2" nVehContrib="0" flow="0.00" occupancy="0.00" speed="-1.00"
              length="-1.00" nVehEntered="0"/>
    <interval begin="900.00" end="1800.00" id="3i_1" nVehContrib="0" flow="0.00" occupancy="0.00" speed="-1.00"
              length="-1.00" nVehEntered="0"/>
    <interval begin="900.00" end="1800.00" id="3i_2" nVehContrib="0" flow="0.00" occupancy="0.00" speed="-1.00"
              length="-1.00" nVehEntered="0"/>
    <interval begin="900.00" end="1800.00" id="4i_1" nVehContrib="0" flow="0.00" occupancy="0.00" speed="-1.00"
              length="-1.00" nVehEntered="0"/>
    <interval begin="900.00" end="1800.00" id="4i_2" nVehContrib="0" flow="0.00" occupancy="0.00" speed="-1.00"
              length="-1.00" nVehEntered="0"/>
    <interval begin="1800.00" end="2700.00" id="1i_1" nVehContrib="3" flow="12.00" occupancy="70.63" speed="0.05"
              length="5.00" nVehEntered="3"/>
    <interval begin="1800.00" end="2700.00" id="1i_2" nVehContrib="0" flow="0.00" occupancy="0.00" speed="-1.00"
              length="-1.00" nVehEntered="0"/>
    <interval begin="1800.00" end="2700.00" id="2i_1" nVehContrib="0" flow="0.00" occupancy="0.00" speed="-1.00"
              length="-1.00" nVehEntered="0"/>
    <interval begin="1800.00" end="2700.00" id="2i_2" nVehContrib="0" flow="0.00" occupancy="0.00" speed="-1.00"
              length="-1.00" nVehEntered="0"/>
    <interval begin="1800.00" end="2700.00" id="3i_1" nVehContrib="0" flow="0.00" occupancy="0.00" speed="-1.00"
              length="-1.00" nVehEntered="0"/>
    <interval begin="1800.00" end="2700.00" id="3i_2" nVehContrib="0" flow="0.00" occupancy="0.00" speed="-1.00"
              length="-1.00" nVehEntered="0"/>
    <interval begin="1800.00" end="2700.00" id="4i_1" nVehContrib="0" flow="0.00" occupancy="0.00" speed="-1.00"
              length="-1.00" nVehEntered="0"/>
    <interval begin="1800.00" end="2700.00" id="4i_2" nVehContrib="0" flow="0.00" occupancy="0.00" speed="-1.00"
              length="-1.00" nVehEntered="0"/>
    <interval begin="2700.00" end="3466.00" id="1i_1" nVehContrib="2" flow="9.40" occupancy="93.47" speed="0.02"
              length="5.00" nVehEntered="2"/>
    <interval begin="2700.00" end="3466.00" id="1i_2" nVehContrib="0" flow="0.00" occupancy="0.00" speed="-1.00"
              length="-1.00" nVehEntered="0"/>
    <interval begin="2700.00" end="3466.00" id="2i_1" nVehContrib="0" flow="0.00" occupancy="0.00" speed="-1.00"
              length="-1.00" nVehEntered="0"/>
    <interval begin="2700.00" end="3466.00" id="2i_2" nVehContrib="0" flow="0.00" occupancy="0.00" speed="-1.00"
              length="-1.00" nVehEntered="0"/>
    <interval begin="2700.00" end="3466.00" id="3i_1" nVehContrib="0" flow="0.00" occupancy="0.00" speed="-1.00"
              length="-1.00" nVehEntered="0"/>
    <interval begin="2700.00" end="3466.00" id="3i_2" nVehContrib="0" flow="0.00" occupancy="0.00" speed="-1.00"
              length="-1.00" nVehEntered="0"/>
    <interval begin="2700.00" end="3466.00" id="4i_1" nVehContrib="0" flow="0.00" occupancy="0.00" speed="-1.00"
              length="-1.00" nVehEntered="0"/>
    <interval begin="2700.00" end="3466.00" id="4i_2" nVehContrib="0" flow="0.00" occupancy="0.00" speed="-1.00"
              length="-1.00" nVehEntered="0"/>
</detector>
